DF-ISE text

Info {
  version   = 1.0
  type      = xyplot
  datasets  = [
    "time"
    "Drain_contact OuterVoltage" "Drain_contact InnerVoltage" "Drain_contact QuasiFermiPotential" "Drain_contact DisplacementCurrent" "Drain_contact eCurrent"
    "Drain_contact hCurrent" "Drain_contact TotalCurrent" "Drain_contact Charge" "Body_contact OuterVoltage" "Body_contact InnerVoltage"
    "Body_contact QuasiFermiPotential" "Body_contact DisplacementCurrent" "Body_contact eCurrent" "Body_contact hCurrent" "Body_contact TotalCurrent"
    "Body_contact Charge" "Source_contact OuterVoltage" "Source_contact InnerVoltage" "Source_contact QuasiFermiPotential" "Source_contact DisplacementCurrent"
    "Source_contact eCurrent" "Source_contact hCurrent" "Source_contact TotalCurrent" "Source_contact Charge" "Gate_contact OuterVoltage"
    "Gate_contact InnerVoltage" "Gate_contact QuasiFermiPotential" "Gate_contact DisplacementCurrent" "Gate_contact eCurrent" "Gate_contact hCurrent"
    "Gate_contact TotalCurrent" "Gate_contact Charge" ]
  functions = [
    Time
    OuterVoltage InnerVoltage QuasiFermiPotential DisplacementCurrent eCurrent
    hCurrent TotalCurrent Charge OuterVoltage InnerVoltage
    QuasiFermiPotential DisplacementCurrent eCurrent hCurrent TotalCurrent
    Charge OuterVoltage InnerVoltage QuasiFermiPotential DisplacementCurrent
    eCurrent hCurrent TotalCurrent Charge OuterVoltage
    InnerVoltage QuasiFermiPotential DisplacementCurrent eCurrent hCurrent
    TotalCurrent Charge ]
}

Data {
      0.00000000000000E+00
      1.50000000000000E+00   1.50000000000000E+00   0.00000000000000E+00   0.00000000000000E+00   8.39907673228808E-19
     -6.10050273179165E-18  -5.26059505856284E-18   1.43197050815734E-15   0.00000000000000E+00   0.00000000000000E+00
      0.00000000000000E+00   0.00000000000000E+00   2.57096890919536E-08   2.57135625153739E-17   2.57096891176671E-08
     -1.99530151958333E-15   0.00000000000000E+00   0.00000000000000E+00   0.00000000000000E+00   0.00000000000000E+00
     -2.57096890850142E-08  -2.73923552440970E-17  -2.57096891124065E-08   6.54070244186401E-16   0.00000000000000E+00
      0.00000000000000E+00   0.00000000000000E+00   0.00000000000000E+00   0.00000000000000E+00   0.00000000000000E+00
      0.00000000000000E+00  -9.07392327604083E-17
      0.00000000000000E+00
      1.50000000000000E+00   1.50000000000000E+00   0.00000000000000E+00   0.00000000000000E+00   2.76864947154660E-07
     -1.87731485533863E-19   2.76864947154472E-07   1.43195704440823E-15   0.00000000000000E+00   0.00000000000000E+00
      0.00000000000000E+00   0.00000000000000E+00   5.60391621639910E-17  -3.31169180861325E-17   2.29222440778586E-17
     -1.99536772177619E-15   0.00000000000000E+00   0.00000000000000E+00   0.00000000000000E+00   0.00000000000000E+00
     -2.76864947175545E-07  -1.84947053463882E-18  -2.76864947177394E-07   6.54087017768933E-16   0.00000000000000E+00
      0.00000000000000E+00   0.00000000000000E+00   0.00000000000000E+00   0.00000000000000E+00   0.00000000000000E+00
      0.00000000000000E+00  -9.06763404009682E-17
      1.00000000000000E-03
      1.50000000000000E+00   1.50000000000000E+00   0.00000000000000E+00   0.00000000000000E+00   2.85392313967602E-07
     -3.05871181085889E-19   2.85392313967296E-07   1.43174010331642E-15   0.00000000000000E+00   0.00000000000000E+00
      0.00000000000000E+00   0.00000000000000E+00   3.51341675164196E-17  -3.44313316592204E-17   7.02835857199123E-19
     -1.99543333969897E-15   0.00000000000000E+00   0.00000000000000E+00   0.00000000000000E+00   0.00000000000000E+00
     -2.85392313967582E-07  -4.16914245727272E-19  -2.85392313967999E-07   6.53863996826289E-16   1.50000000000000E-03
      1.50000000000000E-03   0.00000000000000E+00   0.00000000000000E+00   0.00000000000000E+00   0.00000000000000E+00
      0.00000000000000E+00  -9.01707604437431E-17
      2.09466666666667E-03
      1.50000000000000E+00   1.50000000000000E+00   0.00000000000000E+00   0.00000000000000E+00   2.95011859736919E-07
     -8.35568011573021E-20   2.95011859736835E-07   1.43150261205307E-15   0.00000000000000E+00   0.00000000000000E+00
      0.00000000000000E+00   0.00000000000000E+00   3.51561380390091E-17  -3.48282328441599E-17   3.27905194849279E-19
     -1.99550522304828E-15   0.00000000000000E+00   0.00000000000000E+00   0.00000000000000E+00   0.00000000000000E+00
     -2.95011859736921E-07  -2.42324134120116E-19  -2.95011859737163E-07   6.53619830190459E-16   3.14200000000000E-03
      3.14200000000000E-03   0.00000000000000E+00   0.00000000000000E+00   0.00000000000000E+00   0.00000000000000E+00
      0.00000000000000E+00  -8.96172191952521E-17
      3.29588088888889E-03
      1.50000000000000E+00   1.50000000000000E+00   0.00000000000000E+00   0.00000000000000E+00   3.05920415663268E-07
     -4.37703537059178E-19   3.05920415662831E-07   1.43124198878514E-15   0.00000000000000E+00   0.00000000000000E+00
      0.00000000000000E+00   0.00000000000000E+00   3.51310529829062E-17  -3.38666921462484E-17   1.26436083665774E-18
     -1.99558416964250E-15   0.00000000000000E+00   0.00000000000000E+00   0.00000000000000E+00   0.00000000000000E+00
     -3.05920415663245E-07  -8.49714467104351E-19  -3.05920415664095E-07   6.53351857852561E-16   4.94382133333333E-03
      4.94382133333333E-03   0.00000000000000E+00   0.00000000000000E+00   0.00000000000000E+00   0.00000000000000E+00
      0.00000000000000E+00  -8.90096769951979E-17
      4.61401329540741E-03
      1.50000000000000E+00   1.50000000000000E+00   0.00000000000000E+00   0.00000000000000E+00   3.18329005254362E-07
     -2.66629838441543E-19   3.18329005254095E-07   1.43095597807673E-15   0.00000000000000E+00   0.00000000000000E+00
      0.00000000000000E+00   0.00000000000000E+00   3.51368107367382E-17  -3.44809797790587E-17   6.55830957679574E-19
     -1.99567088345638E-15   0.00000000000000E+00   0.00000000000000E+00   0.00000000000000E+00   0.00000000000000E+00
     -3.18329005254344E-07  -4.06496549851028E-19  -3.18329005254751E-07   6.53057753986895E-16   6.92101994311111E-03
      6.92101994311111E-03   0.00000000000000E+00   0.00000000000000E+00   0.00000000000000E+00   0.00000000000000E+00
      0.00000000000000E+00  -8.83428486072399E-17
      6.06044392282706E-03
      1.50000000000000E+00   1.50000000000000E+00   0.00000000000000E+00   0.00000000000000E+00   3.32491495229033E-07
      4.60285202869185E-19   3.32491495229494E-07   1.43064210394105E-15   0.00000000000000E+00   0.00000000000000E+00
      0.00000000000000E+00   0.00000000000000E+00   3.51326214582822E-17  -3.40599525804558E-17   1.07266887782643E-18
     -1.99576614138095E-15   0.00000000000000E+00   0.00000000000000E+00   0.00000000000000E+00   0.00000000000000E+00
     -3.32491495229012E-07  -1.55443441850102E-18  -3.32491495230566E-07   6.52734964422638E-16   9.09066588424060E-03
      9.09066588424060E-03   0.00000000000000E+00   0.00000000000000E+00   0.00000000000000E+00   0.00000000000000E+00
      0.00000000000000E+00  -8.76109269827297E-17
      7.64766046464890E-03
      1.50000000000000E+00   1.50000000000000E+00   0.00000000000000E+00   0.00000000000000E+00   3.48715097990885E-07
     -1.79076963810383E-19   3.48715097990706E-07   1.43029764808284E-15   0.00000000000000E+00   0.00000000000000E+00
      0.00000000000000E+00   0.00000000000000E+00   3.51389387585226E-17  -3.74415315588226E-17  -2.30259280030001E-18
     -1.99587080159699E-15   0.00000000000000E+00   0.00000000000000E+00   0.00000000000000E+00   0.00000000000000E+00
     -3.48715097990869E-07   2.46651152375995E-18  -3.48715097988403E-07   6.52380683955751E-16   1.14714906969733E-02
      1.14714906969733E-02   0.00000000000000E+00   0.00000000000000E+00   0.00000000000000E+00   0.00000000000000E+00
      0.00000000000000E+00  -8.68075304416025E-17
      9.38936608320806E-03
      1.50000000000000E+00   1.50000000000000E+00   0.00000000000000E+00   0.00000000000000E+00   3.67373866012169E-07
      4.10382440997767E-19   3.67373866012579E-07   1.42991962588567E-15   0.00000000000000E+00   0.00000000000000E+00
      0.00000000000000E+00   0.00000000000000E+00   3.51440937191738E-17  -3.51658500466738E-17  -2.17563274999979E-20
     -1.99598581315847E-15   0.00000000000000E+00   0.00000000000000E+00   0.00000000000000E+00   0.00000000000000E+00
     -3.67373866012159E-07  -3.98624128513217E-19  -3.67373866012557E-07   6.51991831339751E-16   1.40840491248121E-02
      1.40840491248121E-02   0.00000000000000E+00   0.00000000000000E+00   0.00000000000000E+00   0.00000000000000E+00
      0.00000000000000E+00  -8.59256440669453E-17
      1.13005977153070E-02
      1.50000000000000E+00   1.50000000000000E+00   0.00000000000000E+00   0.00000000000000E+00   3.88926138498146E-07
      2.59186792193308E-20   3.88926138498172E-07   1.42950476001360E-15   0.00000000000000E+00   0.00000000000000E+00
      0.00000000000000E+00   0.00000000000000E+00   3.51473903816653E-17  -3.75262099501512E-17  -2.37881956848582E-18
     -1.99611222706703E-15   0.00000000000000E+00   0.00000000000000E+00   0.00000000000000E+00   0.00000000000000E+00
     -3.88926138498139E-07   2.34620531414680E-18  -3.88926138495793E-07   6.51565021691596E-16   1.69508965729605E-02
      1.69508965729605E-02   0.00000000000000E+00   0.00000000000000E+00   0.00000000000000E+00   0.00000000000000E+00
      0.00000000000000E+00  -8.49575546381693E-17
      1.33978558929302E-02
      1.50000000000000E+00   1.50000000000000E+00   0.00000000000000E+00   0.00000000000000E+00   4.13937238452469E-07
      2.13388185976173E-19   4.13937238452682E-07   1.42904945137161E-15   0.00000000000000E+00   0.00000000000000E+00
      0.00000000000000E+00   0.00000000000000E+00   3.51226409937068E-17  -3.53585200087518E-17  -2.35879015044976E-19
     -1.99625120918005E-15   0.00000000000000E+00   0.00000000000000E+00   0.00000000000000E+00   0.00000000000000E+00
     -4.13937238452437E-07  -8.94779442093821E-21  -4.13937238452446E-07   6.51096536020637E-16   2.00967838393953E-02
      2.00967838393953E-02   0.00000000000000E+00   0.00000000000000E+00   0.00000000000000E+00   0.00000000000000E+00
      0.00000000000000E+00  -8.38947782122106E-17
      1.56992471998421E-02
      1.50000000000000E+00   1.50000000000000E+00   0.00000000000000E+00   0.00000000000000E+00   4.43109182177042E-07
     -1.22132399161919E-19   4.43109182176920E-07   1.42854974678889E-15   0.00000000000000E+00   0.00000000000000E+00
      0.00000000000000E+00   0.00000000000000E+00   3.51462795589171E-17  -3.56545324898224E-17  -5.08252930905342E-19
     -1.99640405531231E-15   0.00000000000000E+00   0.00000000000000E+00   0.00000000000000E+00   0.00000000000000E+00
     -4.43109182177034E-07   6.22592227550535E-19  -4.43109182176411E-07   6.50582287564503E-16   2.35488707997631E-02
      2.35488707997631E-02   0.00000000000000E+00   0.00000000000000E+00   0.00000000000000E+00   0.00000000000000E+00
      0.00000000000000E+00  -8.27279790410870E-17
      1.82246405939600E-02
      1.50000000000000E+00   1.50000000000000E+00   0.00000000000000E+00   0.00000000000000E+00   4.77319806374918E-07
     -2.94759724402999E-19   4.77319806374623E-07   1.42800130330457E-15   0.00000000000000E+00   0.00000000000000E+00
      0.00000000000000E+00   0.00000000000000E+00   3.51312564973163E-17  -3.66954158146458E-17  -1.56415931732949E-18
     -1.99657220918977E-15   0.00000000000000E+00   0.00000000000000E+00   0.00000000000000E+00   0.00000000000000E+00
     -4.77319806374895E-07   1.83611050857206E-18  -4.77319806373059E-07   6.50017784546586E-16   2.73369608909401E-02
      2.73369608909401E-02   0.00000000000000E+00   0.00000000000000E+00   0.00000000000000E+00   0.00000000000000E+00
      0.00000000000000E+00  -8.14468786613862E-17
      2.09958389451055E-02
      1.50000000000000E+00   1.50000000000000E+00   0.00000000000000E+00   0.00000000000000E+00   5.17674603774939E-07
     -4.29339014957460E-19   5.17674603774510E-07   1.42739934866429E-15   0.00000000000000E+00   0.00000000000000E+00
      0.00000000000000E+00   0.00000000000000E+00   3.51307449315434E-17  -3.45312572578521E-17   5.99487673691306E-19
     -1.99675728400030E-15   0.00000000000000E+00   0.00000000000000E+00   0.00000000000000E+00   0.00000000000000E+00
     -5.17674603774916E-07  -1.93460387317205E-19  -5.17674603775109E-07   6.49398088902744E-16   3.14937584176582E-02
      3.14937584176582E-02   0.00000000000000E+00   0.00000000000000E+00   0.00000000000000E+00   0.00000000000000E+00
      0.00000000000000E+00  -8.00401535667306E-17
      2.40367672690957E-02
      1.50000000000000E+00   1.50000000000000E+00   0.00000000000000E+00   0.00000000000000E+00   5.65575780800726E-07
     -3.40637113722203E-20   5.65575780800692E-07   1.42673863736269E-15   0.00000000000000E+00   0.00000000000000E+00
      0.00000000000000E+00   0.00000000000000E+00   3.51194449181683E-17  -3.44787625830618E-17   6.40682335106549E-19
     -1.99696108855346E-15   0.00000000000000E+00   0.00000000000000E+00   0.00000000000000E+00   0.00000000000000E+00
     -5.65575780800692E-07  -6.41221186473626E-19  -5.65575780801333E-07   6.48717770494272E-16   3.60551509036436E-02
      3.60551509036436E-02   0.00000000000000E+00   0.00000000000000E+00   0.00000000000000E+00   0.00000000000000E+00
      0.00000000000000E+00  -7.84953193035087E-17
      2.73736792832877E-02
      1.50000000000000E+00   1.50000000000000E+00   0.00000000000000E+00   0.00000000000000E+00   6.22814730510108E-07
     -3.40755252608026E-19   6.22814730509767E-07   1.42601340170747E-15   0.00000000000000E+00   0.00000000000000E+00
      0.00000000000000E+00   0.00000000000000E+00   3.50844672275596E-17  -3.45164755237202E-17   5.67991703839420E-19
     -1.99718566065384E-15   0.00000000000000E+00   0.00000000000000E+00   0.00000000000000E+00   0.00000000000000E+00
     -6.22814730510038E-07  -2.96806640938170E-19  -6.22814730510335E-07   6.47970856267846E-16   4.10605189249316E-02
      4.10605189249316E-02   0.00000000000000E+00   0.00000000000000E+00   0.00000000000000E+00   0.00000000000000E+00
      0.00000000000000E+00  -7.67985973214700E-17
      3.10353840668611E-02
      1.50000000000000E+00   1.50000000000000E+00   0.00000000000000E+00   0.00000000000000E+00   6.91696455231650E-07
     -2.29789207186823E-19   6.91696455231420E-07   1.42521729673842E-15   0.00000000000000E+00   0.00000000000000E+00
      0.00000000000000E+00   0.00000000000000E+00   3.50477603192490E-17  -3.31552410544850E-17   1.89251926476402E-18
     -1.99743330528907E-15   0.00000000000000E+00   0.00000000000000E+00   0.00000000000000E+00   0.00000000000000E+00
     -6.91696455231544E-07  -1.76899612663281E-18  -6.91696455233313E-07   6.47150773466641E-16   4.65530761002916E-02
      4.65530761002916E-02   0.00000000000000E+00   0.00000000000000E+00   0.00000000000000E+00   0.00000000000000E+00
      0.00000000000000E+00  -7.49347649159901E-17
      3.50534947827022E-02
      1.50000000000000E+00   1.50000000000000E+00   0.00000000000000E+00   0.00000000000000E+00   7.75207582568988E-07
      3.07451484951811E-19   7.75207582569296E-07   1.42434333828020E-15   0.00000000000000E+00   0.00000000000000E+00
      0.00000000000000E+00   0.00000000000000E+00   3.49729065345706E-17  -3.77690375836945E-17  -2.79613104912381E-18
     -1.99770664524135E-15   0.00000000000000E+00   0.00000000000000E+00   0.00000000000000E+00   0.00000000000000E+00
     -7.75207582568807E-07   2.30757179187842E-18  -7.75207582566500E-07   6.46250286338939E-16   5.25802421740534E-02
      5.25802421740534E-02   0.00000000000000E+00   0.00000000000000E+00   0.00000000000000E+00   0.00000000000000E+00
      0.00000000000000E+00  -7.28869793777881E-17
      3.94627016082186E-02
      1.50000000000000E+00   1.50000000000000E+00   0.00000000000000E+00   0.00000000000000E+00   8.77243899574984E-07
     -1.89492147368999E-19   8.77243899574795E-07   1.42338383351148E-15   0.00000000000000E+00   0.00000000000000E+00
      0.00000000000000E+00   0.00000000000000E+00   3.48469129045782E-17  -3.50164772545895E-17  -1.69564350011301E-19
     -1.99800868731578E-15   0.00000000000000E+00   0.00000000000000E+00   0.00000000000000E+00   0.00000000000000E+00
     -8.77243899574677E-07   5.19683207570216E-20  -8.77243899574625E-07   6.45261425300693E-16   5.91940524123279E-02
      5.91940524123279E-02   0.00000000000000E+00   0.00000000000000E+00   0.00000000000000E+00   0.00000000000000E+00
      0.00000000000000E+00  -7.06365714963879E-17
      4.43010712314185E-02
      1.50000000000000E+00   1.50000000000000E+00   0.00000000000000E+00   0.00000000000000E+00   1.00291901913186E-06
      3.90946561081740E-20   1.00291901913189E-06   1.42233030082016E-15   0.00000000000000E+00   0.00000000000000E+00
      0.00000000000000E+00   0.00000000000000E+00   3.45964797356960E-17  -3.39195170945471E-17   6.76962641148907E-19
     -1.99834290440910E-15   0.00000000000000E+00   0.00000000000000E+00   0.00000000000000E+00   0.00000000000000E+00
     -1.00291901913130E-06  -1.27356417638670E-18  -1.00291901913257E-06   6.44175407272920E-16   6.64516068471278E-02
      6.64516068471278E-02   0.00000000000000E+00   0.00000000000000E+00   0.00000000000000E+00   0.00000000000000E+00
      0.00000000000000E+00  -6.81628036839789E-17
      4.96103754979433E-02
      1.50000000000000E+00   1.50000000000000E+00   0.00000000000000E+00   0.00000000000000E+00   1.15898317351535E-06
      1.28153159404608E-19   1.15898317351548E-06   1.42117337872547E-15   0.00000000000000E+00   0.00000000000000E+00
      0.00000000000000E+00   0.00000000000000E+00   3.42261809192705E-17  -3.56062377872283E-17  -1.38005686795775E-18
     -1.99871334638114E-15   0.00000000000000E+00   0.00000000000000E+00   0.00000000000000E+00   0.00000000000000E+00
     -1.15898317351442E-06   3.24113819410160E-19  -1.15898317351410E-06   6.42982546075147E-16   7.44155632469149E-02
      7.44155632469149E-02   0.00000000000000E+00   0.00000000000000E+00   0.00000000000000E+00   0.00000000000000E+00
      0.00000000000000E+00  -6.54425784194696E-17
      5.54364520464098E-02
      1.50000000000000E+00   1.50000000000000E+00   0.00000000000000E+00   0.00000000000000E+00   1.35439092839784E-06
     -4.24856037985905E-20   1.35439092839779E-06   1.41990272214897E-15   0.00000000000000E+00   0.00000000000000E+00
      0.00000000000000E+00   0.00000000000000E+00   3.37299159768486E-17  -3.53783318018869E-17  -1.64841582503827E-18
     -1.99912477592736E-15   0.00000000000000E+00   0.00000000000000E+00   0.00000000000000E+00   0.00000000000000E+00
     -1.35439092839641E-06   2.66863843785288E-19  -1.35439092839615E-06   6.41672150284016E-16   8.31546780696147E-02
      8.31546780696147E-02   0.00000000000000E+00   0.00000000000000E+00   0.00000000000000E+00   0.00000000000000E+00
      0.00000000000000E+00  -6.24500965056342E-17
      6.18296000455937E-02
      1.50000000000000E+00   1.50000000000000E+00   0.00000000000000E+00   0.00000000000000E+00   1.60106838316023E-06
      1.42624077917441E-19   1.60106838316038E-06   1.41850687786350E-15   0.00000000000000E+00   0.00000000000000E+00
      0.00000000000000E+00   0.00000000000000E+00   3.31074286022403E-17  -3.42745465108704E-17  -1.16711790863015E-18
     -1.99958285267844E-15   0.00000000000000E+00   0.00000000000000E+00   0.00000000000000E+00   0.00000000000000E+00
     -1.60106838315819E-06  -1.02201234539189E-18  -1.60106838315921E-06   6.40232407807020E-16   9.27444000683905E-02
      9.27444000683905E-02   0.00000000000000E+00   0.00000000000000E+00   0.00000000000000E+00   0.00000000000000E+00
      0.00000000000000E+00  -5.91564329920747E-17
      6.88450144500315E-02
      1.50000000000000E+00   1.50000000000000E+00   0.00000000000000E+00   0.00000000000000E+00   1.91494542651333E-06
     -1.84597698192068E-19   1.91494542651314E-06   1.41697314052584E-15   0.00000000000000E+00   0.00000000000000E+00
      0.00000000000000E+00   0.00000000000000E+00   3.25770236086046E-17  -3.54806519567977E-17  -2.90362834819302E-18
     -2.00009437752942E-15   0.00000000000000E+00   0.00000000000000E+00   0.00000000000000E+00   0.00000000000000E+00
     -1.91494542651075E-06   5.11335286479082E-19  -1.91494542651024E-06   6.38650254210696E-16   1.03267521675047E-01
      1.03267521675047E-01   0.00000000000000E+00   0.00000000000000E+00   0.00000000000000E+00   0.00000000000000E+00
      0.00000000000000E+00  -5.55290172071115E-17
      7.65432625231679E-02
      1.50000000000000E+00   1.50000000000000E+00   0.00000000000000E+00   0.00000000000000E+00   2.31733512722219E-06
     -2.08392119979277E-19   2.31733512722198E-06   1.41528738696124E-15   0.00000000000000E+00   0.00000000000000E+00
      0.00000000000000E+00   0.00000000000000E+00   3.51073491503182E-17  -3.44570865888003E-17   6.50262561517909E-19
     -2.00066762002500E-15   0.00000000000000E+00   0.00000000000000E+00   0.00000000000000E+00   0.00000000000000E+00
     -2.31733512722214E-06  -4.88413552085624E-19  -2.31733512722263E-06   6.36911222294196E-16   1.14814893784752E-01
      1.14814893784752E-01   0.00000000000000E+00   0.00000000000000E+00   0.00000000000000E+00   0.00000000000000E+00
      0.00000000000000E+00  -5.15309892304423E-17
      8.49702780805612E-02
      1.50000000000000E+00   1.50000000000000E+00   0.00000000000000E+00   0.00000000000000E+00   2.83538912624612E-06
      2.00119869960829E-19   2.83538912624632E-06   1.41343837650217E-15   0.00000000000000E+00   0.00000000000000E+00
      0.00000000000000E+00   0.00000000000000E+00   3.51179328383366E-17  -3.50471387622179E-17   7.07940761187050E-20
     -2.00131110882259E-15   0.00000000000000E+00   0.00000000000000E+00   0.00000000000000E+00   0.00000000000000E+00
     -2.83538912624609E-06  -3.06849576838487E-19  -2.83538912624639E-06   6.35003919640414E-16   1.27455417120842E-01
      1.27455417120842E-01   0.00000000000000E+00   0.00000000000000E+00   0.00000000000000E+00   0.00000000000000E+00
      0.00000000000000E+00  -4.71311873199839E-17
      9.41950511107211E-02
      1.50000000000000E+00   1.50000000000000E+00   0.00000000000000E+00   0.00000000000000E+00   3.50612049700109E-06
      4.69113428911999E-20   3.50612049700114E-06   1.41140940430233E-15   0.00000000000000E+00   0.00000000000000E+00
      0.00000000000000E+00   0.00000000000000E+00   3.51746493170383E-17  -3.57930394814212E-17  -6.18390164382963E-19
     -2.00203688843605E-15   0.00000000000000E+00   0.00000000000000E+00   0.00000000000000E+00   0.00000000000000E+00
     -3.50612049700111E-06   5.92285137707822E-19  -3.50612049700052E-06   6.32911460071096E-16   1.41292576666082E-01
      1.41292576666082E-01   0.00000000000000E+00   0.00000000000000E+00   0.00000000000000E+00   0.00000000000000E+00
      0.00000000000000E+00  -4.22839759373756E-17
      1.04293102654403E-01
      1.50000000000000E+00   1.50000000000000E+00   0.00000000000000E+00   0.00000000000000E+00   4.37843228193478E-06
      3.65042027139695E-19   4.37843228193515E-06   1.40918179865142E-15   0.00000000000000E+00   0.00000000000000E+00
      0.00000000000000E+00   0.00000000000000E+00   3.51623807929922E-17  -3.57529241289151E-17  -5.90543335922910E-19
     -2.00285992223742E-15   0.00000000000000E+00   0.00000000000000E+00   0.00000000000000E+00   0.00000000000000E+00
     -4.37843228193479E-06   2.34066170606051E-19  -4.37843228193456E-06   6.30615118235815E-16   1.56439653981604E-01
      1.56439653981604E-01   0.00000000000000E+00   0.00000000000000E+00   0.00000000000000E+00   0.00000000000000E+00
      0.00000000000000E+00  -3.69369946498234E-17
      1.15347103077553E-01
      1.50000000000000E+00   1.50000000000000E+00   0.00000000000000E+00   0.00000000000000E+00   5.51625498970942E-06
      2.72086999994714E-19   5.51625498970969E-06   1.40673460199036E-15   0.00000000000000E+00   0.00000000000000E+00
      0.00000000000000E+00   0.00000000000000E+00   3.50986160925971E-17  -3.58978538508547E-17  -7.99237758257545E-19
     -2.00379870547911E-15   0.00000000000000E+00   0.00000000000000E+00   0.00000000000000E+00   0.00000000000000E+00
     -5.51625498970936E-06   4.71979427561474E-19  -5.51625498970889E-06   6.28094115180159E-16   1.73020654616330E-01
      1.73020654616330E-01   0.00000000000000E+00   0.00000000000000E+00   0.00000000000000E+00   0.00000000000000E+00
      0.00000000000000E+00  -3.10300116914048E-17
      1.27447548874095E-01
      1.50000000000000E+00   1.50000000000000E+00   0.00000000000000E+00   0.00000000000000E+00   7.00165548331194E-06
      5.20894243400540E-20   7.00165548331199E-06   1.40404423762033E-15   0.00000000000000E+00   0.00000000000000E+00
      0.00000000000000E+00   0.00000000000000E+00   3.51388181829828E-17  -3.69802454117272E-17  -1.84142722874441E-18
     -2.00487600323284E-15   0.00000000000000E+00   0.00000000000000E+00   0.00000000000000E+00   0.00000000000000E+00
     -7.00165548331193E-06   1.77439824522939E-18  -7.00165548331015E-06   6.25325407196869E-16   1.91171323311142E-01
      1.91171323311142E-01   0.00000000000000E+00   0.00000000000000E+00   0.00000000000000E+00   0.00000000000000E+00
      0.00000000000000E+00  -2.44936415843608E-17
      1.40693503539376E-01
      1.50000000000000E+00   1.50000000000000E+00   0.00000000000000E+00   0.00000000000000E+00   8.93708183827597E-06
      3.16664942915594E-19   8.93708183827629E-06   1.40108426311790E-15   0.00000000000000E+00   0.00000000000000E+00
      0.00000000000000E+00   0.00000000000000E+00   3.51132483100374E-17  -3.32112569481137E-17   1.90199136192369E-18
     -2.00611940113274E-15   0.00000000000000E+00   0.00000000000000E+00   0.00000000000000E+00   0.00000000000000E+00
     -8.93708183827594E-06  -2.25913527284935E-18  -8.93708183827820E-06   6.22283477657927E-16   2.11040255309064E-01
      2.11040255309064E-01   0.00000000000000E+00   0.00000000000000E+00   0.00000000000000E+00   0.00000000000000E+00
      0.00000000000000E+00  -1.72483396430944E-17
      1.55193408579637E-01
      1.50000000000000E+00   1.50000000000000E+00   0.00000000000000E+00   0.00000000000000E+00   1.14455887981964E-05
      2.46602683268052E-19   1.14455887981966E-05   1.39782517127892E-15   0.00000000000000E+00   0.00000000000000E+00
      0.00000000000000E+00   0.00000000000000E+00   3.52107138724616E-17  -3.53793604981287E-17  -1.68646625667106E-19
     -2.00756160078640E-15   0.00000000000000E+00   0.00000000000000E+00   0.00000000000000E+00   0.00000000000000E+00
     -1.14455887981964E-05  -2.09387459739106E-20  -1.14455887981965E-05   6.18940161820956E-16   2.32790112869455E-01
      2.32790112869455E-01   0.00000000000000E+00   0.00000000000000E+00   0.00000000000000E+00   0.00000000000000E+00
      0.00000000000000E+00  -9.20373231347299E-18
      1.71065971297043E-01
      1.50000000000000E+00   1.50000000000000E+00   0.00000000000000E+00   0.00000000000000E+00   1.46682101130859E-05
     -4.20582519485861E-19   1.46682101130855E-05   1.39423424869640E-15   0.00000000000000E+00   0.00000000000000E+00
      0.00000000000000E+00   0.00000000000000E+00   3.48606820062716E-17  -3.30863328648053E-17   1.77434914146629E-18
     -2.00923954951796E-15   0.00000000000000E+00   0.00000000000000E+00   0.00000000000000E+00   0.00000000000000E+00
     -1.46682101130856E-05  -1.64675086006605E-18  -1.46682101130873E-05   6.15264458222158E-16   2.56598956945564E-01
      2.56598956945564E-01   0.00000000000000E+00   0.00000000000000E+00   0.00000000000000E+00   0.00000000000000E+00
      0.00000000000000E+00  -2.59157400601303E-19
      1.88441136618363E-01
      1.50000000000000E+00   1.50000000000000E+00   0.00000000000000E+00   0.00000000000000E+00   1.87585632043846E-05
     -1.53546006542602E-19   1.87585632043844E-05   1.39027567131579E-15   0.00000000000000E+00   0.00000000000000E+00
      0.00000000000000E+00   0.00000000000000E+00   3.46836942352571E-17  -3.35121461667347E-17   1.17154806852247E-18
     -2.01119416537874E-15   0.00000000000000E+00   0.00000000000000E+00   0.00000000000000E+00   0.00000000000000E+00
     -1.87585632043841E-05  -1.48794490401255E-18  -1.87585632043856E-05   6.11222416572923E-16   2.82661704927544E-01
      2.82661704927544E-01   0.00000000000000E+00   0.00000000000000E+00   0.00000000000000E+00   0.00000000000000E+00
      0.00000000000000E+00   9.69607749001414E-18
      2.07461150923435E-01
      1.50000000000000E+00   1.50000000000000E+00   0.00000000000000E+00   0.00000000000000E+00   2.38763261534910E-05
     -2.17885179776170E-19   2.38763261534907E-05   1.38591068984809E-15   0.00000000000000E+00   0.00000000000000E+00
      0.00000000000000E+00   0.00000000000000E+00   3.48783452174744E-17  -3.53766633708129E-17  -4.98318153338489E-19
     -2.01346929789776E-15   0.00000000000000E+00   0.00000000000000E+00   0.00000000000000E+00   0.00000000000000E+00
     -2.38763261534907E-05   4.40938694818786E-19  -2.38763261534902E-05   6.06776973441390E-16   3.11191726385152E-01
      3.11191726385152E-01   0.00000000000000E+00   0.00000000000000E+00   0.00000000000000E+00   0.00000000000000E+00
      0.00000000000000E+00   2.07816346082776E-17
      2.28281726582720E-01
      1.50000000000000E+00   1.50000000000000E+00   0.00000000000000E+00   0.00000000000000E+00   3.01812095435647E-05
     -3.74136687753626E-20   3.01812095435646E-05   1.38109765432880E-15   0.00000000000000E+00   0.00000000000000E+00
      0.00000000000000E+00   0.00000000000000E+00   3.45929801811500E-17  -3.41148492957627E-17   4.78130885387371E-19
     -2.01611152037954E-15   0.00000000000000E+00   0.00000000000000E+00   0.00000000000000E+00   0.00000000000000E+00
     -3.01812095435641E-05  -1.00132241600390E-18  -3.01812095435651E-05   6.01887832408403E-16   3.42422589874080E-01
      3.42422589874080E-01   0.00000000000000E+00   0.00000000000000E+00   0.00000000000000E+00   0.00000000000000E+00
      0.00000000000000E+00   3.31260336423308E-17