DF-ISE text

Info {
  version   = 1.0
  type      = xyplot
  datasets  = [
    "time"
    "Drain_contact OuterVoltage" "Drain_contact InnerVoltage" "Drain_contact QuasiFermiPotential" "Drain_contact DisplacementCurrent" "Drain_contact eCurrent"
    "Drain_contact hCurrent" "Drain_contact TotalCurrent" "Drain_contact Charge" "Body_contact OuterVoltage" "Body_contact InnerVoltage"
    "Body_contact QuasiFermiPotential" "Body_contact DisplacementCurrent" "Body_contact eCurrent" "Body_contact hCurrent" "Body_contact TotalCurrent"
    "Body_contact Charge" "Source_contact OuterVoltage" "Source_contact InnerVoltage" "Source_contact QuasiFermiPotential" "Source_contact DisplacementCurrent"
    "Source_contact eCurrent" "Source_contact hCurrent" "Source_contact TotalCurrent" "Source_contact Charge" "Gate_contact OuterVoltage"
    "Gate_contact InnerVoltage" "Gate_contact QuasiFermiPotential" "Gate_contact DisplacementCurrent" "Gate_contact eCurrent" "Gate_contact hCurrent"
    "Gate_contact TotalCurrent" "Gate_contact Charge" ]
  functions = [
    Time
    OuterVoltage InnerVoltage QuasiFermiPotential DisplacementCurrent eCurrent
    hCurrent TotalCurrent Charge OuterVoltage InnerVoltage
    QuasiFermiPotential DisplacementCurrent eCurrent hCurrent TotalCurrent
    Charge OuterVoltage InnerVoltage QuasiFermiPotential DisplacementCurrent
    eCurrent hCurrent TotalCurrent Charge OuterVoltage
    InnerVoltage QuasiFermiPotential DisplacementCurrent eCurrent hCurrent
    TotalCurrent Charge ]
}

Data {
      0.00000000000000E+00
      9.00000000000000E-01   9.00000000000000E-01   0.00000000000000E+00   0.00000000000000E+00   4.64643158838587E-19
     -4.64643173049955E-19  -1.42113683622109E-26   1.74286249905046E-15   0.00000000000000E+00   0.00000000000000E+00
      0.00000000000000E+00   0.00000000000000E+00   5.46629767668315E-08   2.81553544461387E-21   5.46629767668343E-08
     -2.89605150926764E-15   0.00000000000000E+00   0.00000000000000E+00   0.00000000000000E+00   0.00000000000000E+00
     -5.46629767668315E-08  -2.81552155360113E-21  -5.46629767668343E-08   1.13851464204257E-15   0.00000000000000E+00
      0.00000000000000E+00   0.00000000000000E+00   0.00000000000000E+00   0.00000000000000E+00   0.00000000000000E+00
      0.00000000000000E+00   1.46743681746135E-17
      0.00000000000000E+00
      9.00000000000000E-01   9.00000000000000E-01   0.00000000000000E+00   0.00000000000000E+00   1.97458621315188E-10
     -2.36597403643258E-18   1.97458618949214E-10   1.74291111673824E-15   0.00000000000000E+00   0.00000000000000E+00
      0.00000000000000E+00   0.00000000000000E+00   2.47577926151776E-07   9.15133475811151E-14   2.47578017665124E-07
     -2.89579779954834E-15   0.00000000000000E+00   0.00000000000000E+00   0.00000000000000E+00   0.00000000000000E+00
     -2.47775384774904E-07  -9.15091687878591E-14  -2.47775476284073E-07   1.13842155018835E-15   0.00000000000000E+00
      0.00000000000000E+00   0.00000000000000E+00   0.00000000000000E+00   0.00000000000000E+00   0.00000000000000E+00
      0.00000000000000E+00   1.44651326217446E-17
      1.00000000000000E-03
      9.00000000000000E-01   9.00000000000000E-01   0.00000000000000E+00   0.00000000000000E+00   8.47697198435398E-08
      1.45481105029533E-28   8.47697198435398E-08   1.74275168799557E-15   0.00000000000000E+00   0.00000000000000E+00
      0.00000000000000E+00   0.00000000000000E+00  -5.20125680447290E-18   1.81276704715171E-18  -3.38848975732118E-18
     -2.89610445793686E-15   0.00000000000000E+00   0.00000000000000E+00   0.00000000000000E+00   0.00000000000000E+00
     -8.47697198401514E-08   4.84388165921529E-23  -8.47697198401513E-08   1.13842151138877E-15   9.00000000000000E-04
      9.00000000000000E-04   0.00000000000000E+00   0.00000000000000E+00   0.00000000000000E+00   0.00000000000000E+00
      0.00000000000000E+00   1.49312585525153E-17
      2.03600000000000E-03
      9.00000000000000E-01   9.00000000000000E-01   0.00000000000000E+00   0.00000000000000E+00   8.65445605078275E-08
     -5.80279781511303E-29   8.65445605078275E-08   1.74263955643378E-15   0.00000000000000E+00   0.00000000000000E+00
      0.00000000000000E+00   0.00000000000000E+00  -1.58638194880683E-17   1.81273242621904E-18  -1.40510870618492E-17
     -2.89614211963343E-15   0.00000000000000E+00   0.00000000000000E+00   0.00000000000000E+00   0.00000000000000E+00
     -8.65445604937766E-08   8.30574451411725E-23  -8.65445604937765E-08   1.13831719020621E-15   1.83240000000000E-03
      1.83240000000000E-03   0.00000000000000E+00   0.00000000000000E+00   0.00000000000000E+00   0.00000000000000E+00
      0.00000000000000E+00   1.51853729934533E-17
      3.12863466666667E-03
      9.00000000000000E-01   9.00000000000000E-01   0.00000000000000E+00   0.00000000000000E+00   8.84535030748413E-08
     -1.20668078687174E-26   8.84535030748413E-08   1.74252128805254E-15   0.00000000000000E+00   0.00000000000000E+00
      0.00000000000000E+00   0.00000000000000E+00  -2.03621767372186E-17   1.78687340962920E-18  -1.85753033275894E-17
     -2.89618183192903E-15   0.00000000000000E+00   0.00000000000000E+00   0.00000000000000E+00   0.00000000000000E+00
     -8.84535030562919E-08   2.59420833201589E-20  -8.84535030562660E-08   1.13820715477051E-15   2.81577120000000E-03
      2.81577120000000E-03   0.00000000000000E+00   0.00000000000000E+00   0.00000000000000E+00   0.00000000000000E+00
      0.00000000000000E+00   1.54533891059857E-17
      4.33053280000000E-03
      9.00000000000000E-01   9.00000000000000E-01   0.00000000000000E+00   0.00000000000000E+00   9.05980894317956E-08
     -1.75991312590270E-26   9.05980894317956E-08   1.74239118455179E-15   0.00000000000000E+00   0.00000000000000E+00
      0.00000000000000E+00   0.00000000000000E+00  -2.85264625004583E-17   1.77660877064238E-18  -2.67498537298159E-17
     -2.89622550579421E-15   0.00000000000000E+00   0.00000000000000E+00   0.00000000000000E+00   0.00000000000000E+00
     -9.05980894050820E-08   3.62067247379115E-20  -9.05980894050458E-08   1.13808610231703E-15   3.89747952000000E-03
      3.89747952000000E-03   0.00000000000000E+00   0.00000000000000E+00   0.00000000000000E+00   0.00000000000000E+00
      0.00000000000000E+00   1.57482189253834E-17
      5.65262074666667E-03
      9.00000000000000E-01   9.00000000000000E-01   0.00000000000000E+00   0.00000000000000E+00   9.30123281382373E-08
     -2.55752428747453E-26   9.30123281382373E-08   1.74224806064368E-15   0.00000000000000E+00   0.00000000000000E+00
      0.00000000000000E+00   0.00000000000000E+00  -4.19321079975332E-17   1.76029852898884E-18  -4.01718094685443E-17
     -2.89627353550475E-15   0.00000000000000E+00   0.00000000000000E+00   0.00000000000000E+00   0.00000000000000E+00
     -9.30123280981180E-08   5.25169708634986E-20  -9.30123280980655E-08   1.13795292831105E-15   5.08735867200000E-03
      5.08735867200000E-03   0.00000000000000E+00   0.00000000000000E+00   0.00000000000000E+00   0.00000000000000E+00
      0.00000000000000E+00   1.60725465500066E-17
      7.10691748800000E-03
      9.00000000000000E-01   9.00000000000000E-01   0.00000000000000E+00   0.00000000000000E+00   9.57361890786189E-08
     -3.75993601879297E-26   9.57361890786189E-08   1.74209061211647E-15   0.00000000000000E+00   0.00000000000000E+00
      0.00000000000000E+00   0.00000000000000E+00  -6.01904320024756E-17   1.73671934574643E-18  -5.84537126567291E-17
     -2.89632635441749E-15   0.00000000000000E+00   0.00000000000000E+00   0.00000000000000E+00   0.00000000000000E+00
     -9.57361890202413E-08   7.60961619420855E-20  -9.57361890201652E-08   1.13780641716963E-15   6.39622573920000E-03
      6.39622573920000E-03   0.00000000000000E+00   0.00000000000000E+00   0.00000000000000E+00   0.00000000000000E+00
      0.00000000000000E+00   1.64293251313896E-17
      8.70664390346667E-03
      9.00000000000000E-01   9.00000000000000E-01   0.00000000000000E+00   0.00000000000000E+00   9.88168682167588E-08
     -2.54584176439681E-28   9.88168682167588E-08   1.74191740387768E-15   0.00000000000000E+00   0.00000000000000E+00
      0.00000000000000E+00   0.00000000000000E+00  -1.82955031336873E-18   1.81281911305742E-18  -1.67312003113080E-20
     -2.89638443883316E-15   0.00000000000000E+00   0.00000000000000E+00   0.00000000000000E+00   0.00000000000000E+00
     -9.88168682167421E-08  -3.64740559941110E-24  -9.88168682167421E-08   1.13764523103092E-15   7.83597951312000E-03
      7.83597951312000E-03   0.00000000000000E+00   0.00000000000000E+00   0.00000000000000E+00   0.00000000000000E+00
      0.00000000000000E+00   1.68218039245463E-17
      1.04620770233721E-02
      9.00000000000000E-01   9.00000000000000E-01   0.00000000000000E+00   0.00000000000000E+00   1.02301765014381E-07
      1.36581582335789E-28   1.02301765014381E-07   1.74172731870585E-15   0.00000000000000E+00   0.00000000000000E+00
      0.00000000000000E+00   0.00000000000000E+00  -1.82879533332753E-18   1.81276257510727E-18  -1.60327582202624E-20
     -2.89644815740729E-15   0.00000000000000E+00   0.00000000000000E+00   0.00000000000000E+00   0.00000000000000E+00
     -1.02301765014365E-07   5.28847797663335E-23  -1.02301765014365E-07   1.13746832731030E-15   9.41586932103488E-03
      9.41586932103488E-03   0.00000000000000E+00   0.00000000000000E+00   0.00000000000000E+00   0.00000000000000E+00
      0.00000000000000E+00   1.72525113911350E-17
      1.23883723002816E-02
      9.00000000000000E-01   9.00000000000000E-01   0.00000000000000E+00   0.00000000000000E+00   1.06255002472489E-07
     -2.72061677906754E-28   1.06255002472489E-07   1.74151871011431E-15   0.00000000000000E+00   0.00000000000000E+00
      0.00000000000000E+00   0.00000000000000E+00  -1.82770295431903E-18   1.81286718370136E-18  -1.48357706176699E-20
     -2.89651805509617E-15   0.00000000000000E+00   0.00000000000000E+00   0.00000000000000E+00   0.00000000000000E+00
     -1.06255002472474E-07  -5.17297213816488E-23  -1.06255002472474E-07   1.13727417028169E-15   1.11495350702535E-02
      1.11495350702535E-02   0.00000000000000E+00   0.00000000000000E+00   0.00000000000000E+00   0.00000000000000E+00
      0.00000000000000E+00   1.77251747001714E-17
      1.45021603174771E-02
      9.00000000000000E-01   9.00000000000000E-01   0.00000000000000E+00   0.00000000000000E+00   1.10753215070356E-07
     -2.64179683150541E-28   1.10753215070356E-07   1.74128977054358E-15   0.00000000000000E+00   0.00000000000000E+00
      0.00000000000000E+00   0.00000000000000E+00  -1.82821625024444E-18   1.81278909127371E-18  -1.54271589707353E-20
     -2.89659472931824E-15   0.00000000000000E+00   0.00000000000000E+00   0.00000000000000E+00   0.00000000000000E+00
     -1.10753215070341E-07   2.63557496544594E-23  -1.10753215070341E-07   1.13706107353761E-15   1.30519442857293E-02
      1.30519442857293E-02   0.00000000000000E+00   0.00000000000000E+00   0.00000000000000E+00   0.00000000000000E+00
      0.00000000000000E+00   1.82438852370445E-17
      1.68216903683462E-02
      9.00000000000000E-01   9.00000000000000E-01   0.00000000000000E+00   0.00000000000000E+00   1.15888478603265E-07
     -1.71977187119913E-28   1.15888478603265E-07   1.74103851549943E-15   0.00000000000000E+00   0.00000000000000E+00
      0.00000000000000E+00   0.00000000000000E+00  -1.82853932919632E-18   1.81281155472967E-18  -1.57277744666495E-20
     -2.89667883505876E-15   0.00000000000000E+00   0.00000000000000E+00   0.00000000000000E+00   0.00000000000000E+00
     -1.15888478603250E-07   3.88374802113708E-24  -1.15888478603250E-07   1.13682718507977E-15   1.51395213315115E-02
      1.51395213315115E-02   0.00000000000000E+00   0.00000000000000E+00   0.00000000000000E+00   0.00000000000000E+00
      0.00000000000000E+00   1.88131344795542E-17
      1.93669880108332E-02
      9.00000000000000E-01   9.00000000000000E-01   0.00000000000000E+00   0.00000000000000E+00   1.21772033854960E-07
      1.99944534071285E-29   1.21772033854960E-07   1.74076276610572E-15   0.00000000000000E+00   0.00000000000000E+00
      0.00000000000000E+00   0.00000000000000E+00  -1.82884919286376E-18   1.81297289697058E-18  -1.58762958931849E-20
     -2.89677109045358E-15   0.00000000000000E+00   0.00000000000000E+00   0.00000000000000E+00   0.00000000000000E+00
     -1.21772033854944E-07  -1.57468301202409E-22  -1.21772033854944E-07   1.13657047091172E-15   1.74302892097499E-02
      1.74302892097499E-02   0.00000000000000E+00   0.00000000000000E+00   0.00000000000000E+00   0.00000000000000E+00
      0.00000000000000E+00   1.94378534361340E-17
      2.21600279571889E-02
      9.00000000000000E-01   9.00000000000000E-01   0.00000000000000E+00   0.00000000000000E+00   1.28539045126768E-07
      2.06471283864728E-29   1.28539045126768E-07   1.74046012990795E-15   0.00000000000000E+00   0.00000000000000E+00
      0.00000000000000E+00   0.00000000000000E+00  -1.82754839378154E-18   1.81275628172762E-18  -1.47921120539197E-20
     -2.89687228291024E-15   0.00000000000000E+00   0.00000000000000E+00   0.00000000000000E+00   0.00000000000000E+00
     -1.28539045126754E-07   5.91354943960862E-23  -1.28539045126754E-07   1.13628869696892E-15   1.99440251614701E-02
      1.99440251614701E-02   0.00000000000000E+00   0.00000000000000E+00   0.00000000000000E+00   0.00000000000000E+00
      0.00000000000000E+00   2.01234560333684E-17
      2.52249237916567E-02
      9.00000000000000E-01   9.00000000000000E-01   0.00000000000000E+00   0.00000000000000E+00   1.36354715099243E-07
     -1.75917476522981E-28   1.36354715099243E-07   1.74012797974048E-15   0.00000000000000E+00   0.00000000000000E+00
      0.00000000000000E+00   0.00000000000000E+00  -1.82708931712755E-18   1.81279153173220E-18  -1.42977853953509E-20
     -2.89698327588149E-15   0.00000000000000E+00   0.00000000000000E+00   0.00000000000000E+00   0.00000000000000E+00
     -1.36354715099228E-07   2.38724305846714E-23  -1.36354715099228E-07   1.13597940921950E-15   2.27024314124910E-02
      2.27024314124910E-02   0.00000000000000E+00   0.00000000000000E+00   0.00000000000000E+00   0.00000000000000E+00
      0.00000000000000E+00   2.08758869215059E-17
      2.85881361540126E-02
      9.00000000000000E-01   9.00000000000000E-01   0.00000000000000E+00   0.00000000000000E+00   1.45422187063847E-07
     -3.09790665394348E-30   1.45422187063847E-07   1.73976343045230E-15   0.00000000000000E+00   0.00000000000000E+00
      0.00000000000000E+00   0.00000000000000E+00  -1.82955962605806E-18   1.81282070785049E-18  -1.67389182075678E-20
     -2.89710501636836E-15   0.00000000000000E+00   0.00000000000000E+00   0.00000000000000E+00   0.00000000000000E+00
     -1.45422187063831E-07  -5.31960926994353E-24  -1.45422187063831E-07   1.13563991174983E-15   2.57293225386113E-02
      2.57293225386113E-02   0.00000000000000E+00   0.00000000000000E+00   0.00000000000000E+00   0.00000000000000E+00
      0.00000000000000E+00   2.17016741662403E-17
      3.22787011863045E-02
      9.00000000000000E-01   9.00000000000000E-01   0.00000000000000E+00   0.00000000000000E+00   1.55992816091312E-07
     -1.00812455046950E-28   1.55992816091312E-07   1.73936331325991E-15   0.00000000000000E+00   0.00000000000000E+00
      0.00000000000000E+00   0.00000000000000E+00  -1.82703690481275E-18   1.81285889668719E-18  -1.41780081255552E-20
     -2.89723854325373E-15   0.00000000000000E+00   0.00000000000000E+00   0.00000000000000E+00   0.00000000000000E+00
     -1.55992816091298E-07  -4.35270482091986E-23  -1.55992816091298E-07   1.13526724260883E-15   2.90508310676740E-02
      2.90508310676740E-02   0.00000000000000E+00   0.00000000000000E+00   0.00000000000000E+00   0.00000000000000E+00
      0.00000000000000E+00   2.26079873849793E-17
      3.63284812150728E-02
      9.00000000000000E-01   9.00000000000000E-01   0.00000000000000E+00   0.00000000000000E+00   1.68379597132397E-07
      2.49763133805810E-29   1.68379597132397E-07   1.73892414746837E-15   0.00000000000000E+00   0.00000000000000E+00
      0.00000000000000E+00   0.00000000000000E+00  -1.83016114337675E-18   1.81288323159728E-18  -1.72779117794702E-20
     -2.89738499660705E-15   0.00000000000000E+00   0.00000000000000E+00   0.00000000000000E+00   0.00000000000000E+00
     -1.68379597132380E-07  -6.78841753413311E-23  -1.68379597132380E-07   1.13485814718115E-15   3.26956330935655E-02
      3.26956330935655E-02   0.00000000000000E+00   0.00000000000000E+00   0.00000000000000E+00   0.00000000000000E+00
      0.00000000000000E+00   2.36027019575297E-17
      4.07724398333079E-02
      9.00000000000000E-01   9.00000000000000E-01   0.00000000000000E+00   0.00000000000000E+00   1.82974825601026E-07
     -1.75536187782996E-28   1.82974825601026E-07   1.73844210926423E-15   0.00000000000000E+00   0.00000000000000E+00
      0.00000000000000E+00   0.00000000000000E+00  -1.82914322328217E-18   1.81286333393695E-18  -1.62798893452194E-20
     -2.89754562813812E-15   0.00000000000000E+00   0.00000000000000E+00   0.00000000000000E+00   0.00000000000000E+00
     -1.82974825601010E-07  -4.80128853685757E-23  -1.82974825601010E-07   1.13440904883369E-15   3.66951958499771E-02
      3.66951958499771E-02   0.00000000000000E+00   0.00000000000000E+00   0.00000000000000E+00   0.00000000000000E+00
      0.00000000000000E+00   2.46944700401963E-17
      4.56489437570512E-02
      9.00000000000000E-01   9.00000000000000E-01   0.00000000000000E+00   0.00000000000000E+00   2.00273471140381E-07
     -1.34514710578103E-28   2.00273471140381E-07   1.73791299721701E-15   0.00000000000000E+00   0.00000000000000E+00
      0.00000000000000E+00   0.00000000000000E+00  -1.82926247431963E-18   1.81279067168329E-18  -1.64718026363329E-20
     -2.89772181301749E-15   0.00000000000000E+00   0.00000000000000E+00   0.00000000000000E+00   0.00000000000000E+00
     -2.00273471140364E-07   2.46173369653780E-23  -2.00273471140364E-07   1.13391601653106E-15   4.10840493813461E-02
      4.10840493813461E-02   0.00000000000000E+00   0.00000000000000E+00   0.00000000000000E+00   0.00000000000000E+00
      0.00000000000000E+00   2.58927992694195E-17
      5.10000940627055E-02
      9.00000000000000E-01   9.00000000000000E-01   0.00000000000000E+00   0.00000000000000E+00   2.20904323206719E-07
      2.07958385057719E-29   2.20904323206719E-07   1.73733219417272E-15   0.00000000000000E+00   0.00000000000000E+00
      0.00000000000000E+00   0.00000000000000E+00  -1.82930045359440E-18   1.81290059265514E-18  -1.63998609392650E-20
     -2.89791506337013E-15   0.00000000000000E+00   0.00000000000000E+00   0.00000000000000E+00   0.00000000000000E+00
     -2.20904323206702E-07  -8.53426234483404E-23  -2.20904323206703E-07   1.13337472908427E-15   4.59000846564350E-02
      4.59000846564350E-02   0.00000000000000E+00   0.00000000000000E+00   0.00000000000000E+00   0.00000000000000E+00
      0.00000000000000E+00   2.72081401131484E-17
      5.68720896647769E-02
      9.00000000000000E-01   9.00000000000000E-01   0.00000000000000E+00   0.00000000000000E+00   2.45671805973725E-07
     -1.74586967253463E-28   2.45671805973725E-07   1.73669462504158E-15   0.00000000000000E+00   0.00000000000000E+00
      0.00000000000000E+00   0.00000000000000E+00  -1.82816565451826E-18   1.81275748013351E-18  -1.54081743847457E-20
     -2.89812704389512E-15   0.00000000000000E+00   0.00000000000000E+00   0.00000000000000E+00   0.00000000000000E+00
     -2.45671805973710E-07   5.77227705890447E-23  -2.45671805973710E-07   1.13278043570392E-15   5.11848806982992E-02
      5.11848806982992E-02   0.00000000000000E+00   0.00000000000000E+00   0.00000000000000E+00   0.00000000000000E+00
      0.00000000000000E+00   2.86519831496196E-17
      6.33156261721165E-02
      9.00000000000000E-01   9.00000000000000E-01   0.00000000000000E+00   0.00000000000000E+00   2.75612609804498E-07
      1.33862455458896E-28   2.75612609804498E-07   1.73599471002043E-15   0.00000000000000E+00   0.00000000000000E+00
      0.00000000000000E+00   0.00000000000000E+00  -1.84159670537147E-18   1.81275773500698E-18  -2.88389703644899E-20
     -2.89835959020517E-15   0.00000000000000E+00   0.00000000000000E+00   0.00000000000000E+00   0.00000000000000E+00
     -2.75612609804469E-07   5.74094519599223E-23  -2.75612609804469E-07   1.13212791246105E-15   5.69840635549049E-02
      5.69840635549049E-02   0.00000000000000E+00   0.00000000000000E+00   0.00000000000000E+00   0.00000000000000E+00
      0.00000000000000E+00   3.02369677236855E-17
      7.03863335661705E-02
      9.00000000000000E-01   9.00000000000000E-01   0.00000000000000E+00   0.00000000000000E+00   3.12073223166387E-07
     -8.20747363587998E-29   3.12073223166387E-07   1.73522631235854E-15   0.00000000000000E+00   0.00000000000000E+00
      0.00000000000000E+00   0.00000000000000E+00  -1.85592611786860E-18   1.81275041664674E-18  -4.31757012218592E-20
     -2.89861473061152E-15   0.00000000000000E+00   0.00000000000000E+00   0.00000000000000E+00   0.00000000000000E+00
     -3.12073223166344E-07   6.46563014856513E-23  -3.12073223166344E-07   1.13141141413750E-15   6.33477002095535E-02
      6.33477002095535E-02   0.00000000000000E+00   0.00000000000000E+00   0.00000000000000E+00   0.00000000000000E+00
      0.00000000000000E+00   3.19770041154881E-17
      7.81452564799125E-02
      9.00000000000000E-01   9.00000000000000E-01   0.00000000000000E+00   0.00000000000000E+00   3.56817433248963E-07
     -5.72815139639290E-29   3.56817433248963E-07   1.73438268027074E-15   0.00000000000000E+00   0.00000000000000E+00
      0.00000000000000E+00   0.00000000000000E+00  -1.89284900785536E-18   1.81280930600435E-18  -8.00397018510070E-20
     -2.89889471284647E-15   0.00000000000000E+00   0.00000000000000E+00   0.00000000000000E+00   0.00000000000000E+00
     -3.56817433248883E-07   5.67761219634047E-24  -3.56817433248883E-07   1.13062462118430E-15   7.03307308319212E-02
      7.03307308319212E-02   0.00000000000000E+00   0.00000000000000E+00   0.00000000000000E+00   0.00000000000000E+00
      0.00000000000000E+00   3.38874113914282E-17
      8.66593812239253E-02
      9.00000000000000E-01   9.00000000000000E-01   0.00000000000000E+00   0.00000000000000E+00   4.12177929446583E-07
      7.41266402262144E-29   4.12177929446583E-07   1.73345638165475E-15   0.00000000000000E+00   0.00000000000000E+00
      0.00000000000000E+00   0.00000000000000E+00  -1.97118029972191E-18   1.81282887762887E-18  -1.58351422093033E-19
     -2.89920203841213E-15   0.00000000000000E+00   0.00000000000000E+00   0.00000000000000E+00   0.00000000000000E+00
     -4.12177929446425E-07  -1.40058931088288E-23  -4.12177929446425E-07   1.12976058123689E-15   7.79934431015328E-02
      7.79934431015328E-02   0.00000000000000E+00   0.00000000000000E+00   0.00000000000000E+00   0.00000000000000E+00
      0.00000000000000E+00   3.59850755204932E-17
      9.60022141096887E-02
      9.00000000000000E-01   9.00000000000000E-01   0.00000000000000E+00   0.00000000000000E+00   4.81273976409443E-07
     -6.30442746741652E-29   4.81273976409443E-07   1.73243923068693E-15   0.00000000000000E+00   0.00000000000000E+00
      0.00000000000000E+00   0.00000000000000E+00  -2.14756571455504E-18   1.81283927796928E-18  -3.34726436585758E-19
     -2.89953950466072E-15   0.00000000000000E+00   0.00000000000000E+00   0.00000000000000E+00   0.00000000000000E+00
     -4.81273976409108E-07  -2.45471906626788E-23  -4.81273976409108E-07   1.12881164467711E-15   8.64019926987198E-02
      8.64019926987198E-02   0.00000000000000E+00   0.00000000000000E+00   0.00000000000000E+00   0.00000000000000E+00
      0.00000000000000E+00   3.82886292966832E-17
      1.06254416063000E-01
      9.00000000000000E-01   9.00000000000000E-01   0.00000000000000E+00   0.00000000000000E+00   5.68330493634002E-07
      5.36182358657496E-30   5.68330493634002E-07   1.73132220424969E-15   0.00000000000000E+00   0.00000000000000E+00
      0.00000000000000E+00   0.00000000000000E+00  -2.52535152148808E-18   1.81284624663530E-18  -7.12505274852778E-19
     -2.89991026499251E-15   0.00000000000000E+00   0.00000000000000E+00   0.00000000000000E+00   0.00000000000000E+00
     -5.68330493633289E-07  -3.16956450937062E-23  -5.68330493633289E-07   1.12776939426665E-15   9.56289744566998E-02
      9.56289744566998E-02   0.00000000000000E+00   0.00000000000000E+00   0.00000000000000E+00   0.00000000000000E+00
      0.00000000000000E+00   4.08186664761784E-17
      1.17504499006433E-01
      9.00000000000000E-01   9.00000000000000E-01   0.00000000000000E+00   0.00000000000000E+00   6.79154647883229E-07
      3.01539801670507E-29   6.79154647883229E-07   1.73009534532788E-15   0.00000000000000E+00   0.00000000000000E+00
      0.00000000000000E+00   0.00000000000000E+00  -3.30517020762469E-18   1.81277656234363E-18  -1.49239364528106E-18
     -2.90031791126999E-15   0.00000000000000E+00   0.00000000000000E+00   0.00000000000000E+00   0.00000000000000E+00
     -6.79154647881737E-07   3.77576458595004E-23  -6.79154647881737E-07   1.12662456921975E-15   1.05754049105790E-01
      1.05754049105790E-01   0.00000000000000E+00   0.00000000000000E+00   0.00000000000000E+00   0.00000000000000E+00
      0.00000000000000E+00   4.35979967223630E-17
      1.29849590023027E-01
      9.00000000000000E-01   9.00000000000000E-01   0.00000000000000E+00   0.00000000000000E+00   8.21858888825465E-07
      1.31921185457886E-29   8.21858888825465E-07   1.72874765089007E-15   0.00000000000000E+00   0.00000000000000E+00
      0.00000000000000E+00   0.00000000000000E+00  -4.87705955149326E-18   1.81283837730779E-18  -3.06422117418548E-18
     -2.90076659319516E-15   0.00000000000000E+00   0.00000000000000E+00   0.00000000000000E+00   0.00000000000000E+00
     -8.21858888822401E-07  -2.43574041596771E-23  -8.21858888822401E-07   1.12536698393247E-15   1.16864631020725E-01
      1.16864631020725E-01   0.00000000000000E+00   0.00000000000000E+00   0.00000000000000E+00   0.00000000000000E+00
      0.00000000000000E+00   4.66519583726277E-17
      1.43396269898570E-01
      9.00000000000000E-01   9.00000000000000E-01   0.00000000000000E+00   0.00000000000000E+00   1.00796431480640E-06
      9.40739376525037E-29   1.00796431480640E-06   1.72726693715007E-15   0.00000000000000E+00   0.00000000000000E+00
      0.00000000000000E+00   0.00000000000000E+00  -7.86489254765755E-18   1.81277251440054E-18  -6.05212003325701E-18
     -2.90126119456510E-15   0.00000000000000E+00   0.00000000000000E+00   0.00000000000000E+00   0.00000000000000E+00
     -1.00796431480035E-06   4.11109312787712E-23  -1.00796431480035E-06   1.12398544433381E-15   1.29056642908713E-01
      1.29056642908713E-01   0.00000000000000E+00   0.00000000000000E+00   0.00000000000000E+00   0.00000000000000E+00
      0.00000000000000E+00   5.00088130812165E-17
      1.58261493281999E-01
      9.00000000000000E-01   9.00000000000000E-01   0.00000000000000E+00   0.00000000000000E+00   1.25408119944265E-06
      5.28756495345393E-29   1.25408119944265E-06   1.72563967689911E-15   0.00000000000000E+00   0.00000000000000E+00
      0.00000000000000E+00   0.00000000000000E+00  -1.32177354971864E-17   1.81278732750494E-18  -1.14049481696815E-17
     -2.90180760011810E-15   0.00000000000000E+00   0.00000000000000E+00   0.00000000000000E+00   0.00000000000000E+00
     -1.25408119943125E-06   2.57723965102085E-23  -1.25408119943125E-06   1.12246766435749E-15   1.42435343953799E-01
      1.42435343953799E-01   0.00000000000000E+00   0.00000000000000E+00   0.00000000000000E+00   0.00000000000000E+00
      0.00000000000000E+00   5.37002588615033E-17
      1.74573598408081E-01
      9.00000000000000E-01   9.00000000000000E-01   0.00000000000000E+00   0.00000000000000E+00   1.58444697181292E-06
     -1.51609722075610E-29   1.58444697181292E-06   1.72385079698479E-15   0.00000000000000E+00   0.00000000000000E+00
      0.00000000000000E+00   0.00000000000000E+00  -2.18990057031526E-17   1.81279664263509E-18  -2.00862090605175E-17
     -2.90241308206895E-15   0.00000000000000E+00   0.00000000000000E+00   0.00000000000000E+00   0.00000000000000E+00
     -1.58444697179283E-06   1.57478757616496E-23  -1.58444697179283E-06   1.12080018846349E-15   1.57116238567273E-01
      1.57116238567273E-01   0.00000000000000E+00   0.00000000000000E+00   0.00000000000000E+00   0.00000000000000E+00
      0.00000000000000E+00   5.77620966206689E-17
      1.92473415099769E-01
      9.00000000000000E-01   9.00000000000000E-01   0.00000000000000E+00   0.00000000000000E+00   2.03469352277238E-06
     -1.26797751443356E-29   2.03469352277238E-06   1.72188342385213E-15   0.00000000000000E+00   0.00000000000000E+00
      0.00000000000000E+00   0.00000000000000E+00  -3.42742133481193E-17   1.81285841112047E-18  -3.24613549369988E-17
     -2.90308687928966E-15   0.00000000000000E+00   0.00000000000000E+00   0.00000000000000E+00   0.00000000000000E+00
     -2.03469352273992E-06  -4.69919972437708E-23  -2.03469352273992E-06   1.11896832869276E-15   1.73226073589792E-01
      1.73226073589792E-01   0.00000000000000E+00   0.00000000000000E+00   0.00000000000000E+00   0.00000000000000E+00
      0.00000000000000E+00   6.22351267447645E-17
      2.12115480616115E-01
      9.00000000000000E-01   9.00000000000000E-01   0.00000000000000E+00   0.00000000000000E+00   2.65734435237821E-06
     -9.04209892814542E-29   2.65734435237821E-06   1.71971856014099E-15   0.00000000000000E+00   0.00000000000000E+00
      0.00000000000000E+00   0.00000000000000E+00  -4.99808708416836E-17   1.81284450797228E-18  -4.81680263337113E-17
     -2.90384103768114E-15   0.00000000000000E+00   0.00000000000000E+00   0.00000000000000E+00   0.00000000000000E+00
     -2.65734435233005E-06  -3.44383046436273E-23  -2.65734435233005E-06   1.11695612702176E-15   1.90903932554503E-01
      1.90903932554503E-01   0.00000000000000E+00   0.00000000000000E+00   0.00000000000000E+00   0.00000000000000E+00
      0.00000000000000E+00   6.71663505184013E-17