DF-ISE text

Info {
  version   = 1.0
  type      = xyplot
  datasets  = [
    "time"
    "Drain_contact OuterVoltage" "Drain_contact InnerVoltage" "Drain_contact QuasiFermiPotential" "Drain_contact DisplacementCurrent" "Drain_contact eCurrent"
    "Drain_contact hCurrent" "Drain_contact TotalCurrent" "Drain_contact Charge" "Body_contact OuterVoltage" "Body_contact InnerVoltage"
    "Body_contact QuasiFermiPotential" "Body_contact DisplacementCurrent" "Body_contact eCurrent" "Body_contact hCurrent" "Body_contact TotalCurrent"
    "Body_contact Charge" "Source_contact OuterVoltage" "Source_contact InnerVoltage" "Source_contact QuasiFermiPotential" "Source_contact DisplacementCurrent"
    "Source_contact eCurrent" "Source_contact hCurrent" "Source_contact TotalCurrent" "Source_contact Charge" "Gate_contact OuterVoltage"
    "Gate_contact InnerVoltage" "Gate_contact QuasiFermiPotential" "Gate_contact DisplacementCurrent" "Gate_contact eCurrent" "Gate_contact hCurrent"
    "Gate_contact TotalCurrent" "Gate_contact Charge" ]
  functions = [
    Time
    OuterVoltage InnerVoltage QuasiFermiPotential DisplacementCurrent eCurrent
    hCurrent TotalCurrent Charge OuterVoltage InnerVoltage
    QuasiFermiPotential DisplacementCurrent eCurrent hCurrent TotalCurrent
    Charge OuterVoltage InnerVoltage QuasiFermiPotential DisplacementCurrent
    eCurrent hCurrent TotalCurrent Charge OuterVoltage
    InnerVoltage QuasiFermiPotential DisplacementCurrent eCurrent hCurrent
    TotalCurrent Charge ]
}

Data {
      0.00000000000000E+00
      1.30000000000000E+00   1.30000000000000E+00   0.00000000000000E+00   0.00000000000000E+00   2.24452854537702E-18
     -3.16737388352813E-18  -9.22845338151105E-19   2.79442288179054E-15   0.00000000000000E+00   0.00000000000000E+00
      0.00000000000000E+00   0.00000000000000E+00   4.53125202567267E-07  -1.26315189840718E-17   4.53125202554636E-07
     -4.36891429722084E-15   0.00000000000000E+00   0.00000000000000E+00   0.00000000000000E+00   0.00000000000000E+00
     -4.53125202551468E-07  -2.24470944310781E-18  -4.53125202553713E-07   1.58916945811564E-15   0.00000000000000E+00
      0.00000000000000E+00   0.00000000000000E+00   0.00000000000000E+00   0.00000000000000E+00   0.00000000000000E+00
      0.00000000000000E+00  -1.46780426853380E-17
      0.00000000000000E+00
      1.30000000000000E+00   1.30000000000000E+00   0.00000000000000E+00   0.00000000000000E+00   5.43670651294629E-06
      2.76648432627468E-19   5.43670651294656E-06   2.79380744813392E-15   0.00000000000000E+00   0.00000000000000E+00
      0.00000000000000E+00   0.00000000000000E+00   8.37540264721613E-17  -7.91035700846923E-17   4.65045638746903E-18
     -4.37036172873828E-15   0.00000000000000E+00   0.00000000000000E+00   0.00000000000000E+00   0.00000000000000E+00
     -5.43670651295059E-06  -6.29083660622880E-19  -5.43670651295122E-06   1.58972648258927E-15   0.00000000000000E+00
      0.00000000000000E+00   0.00000000000000E+00   0.00000000000000E+00   0.00000000000000E+00   0.00000000000000E+00
      0.00000000000000E+00  -1.31722019849162E-17
      1.00000000000000E-03
      1.30000000000000E+00   1.30000000000000E+00   0.00000000000000E+00   0.00000000000000E+00   5.62001983689413E-06
     -2.02057863938886E-20   5.62001983689411E-06   2.79370586005920E-15   0.00000000000000E+00   0.00000000000000E+00
      0.00000000000000E+00   0.00000000000000E+00   7.78681267181266E-17  -7.94697158839827E-17  -1.60158916585611E-18
     -4.37047661598626E-15   0.00000000000000E+00   0.00000000000000E+00   0.00000000000000E+00   0.00000000000000E+00
     -5.62001983689255E-06   3.39160032727598E-20  -5.62001983689251E-06   1.58951112629361E-15   1.30000000000000E-03
      1.30000000000000E-03   0.00000000000000E+00   0.00000000000000E+00   0.00000000000000E+00   0.00000000000000E+00
      0.00000000000000E+00  -1.27403703665467E-17
      2.09466666666667E-03
      1.30000000000000E+00   1.30000000000000E+00   0.00000000000000E+00   0.00000000000000E+00   5.82678795338155E-06
      1.88644956659182E-19   5.82678795338174E-06   2.79359393127984E-15   0.00000000000000E+00   0.00000000000000E+00
      0.00000000000000E+00   0.00000000000000E+00   7.92668042974467E-17  -7.98190988406108E-17  -5.52294543164140E-19
     -4.37060381371832E-15   0.00000000000000E+00   0.00000000000000E+00   0.00000000000000E+00   0.00000000000000E+00
     -5.82678795338138E-06   1.74447806909792E-19  -5.82678795338120E-06   1.58927502950225E-15   2.72306666666667E-03
      2.72306666666667E-03   0.00000000000000E+00   0.00000000000000E+00   0.00000000000000E+00   0.00000000000000E+00
      0.00000000000000E+00  -1.22651470637596E-17
      3.29588088888889E-03
      1.30000000000000E+00   1.30000000000000E+00   0.00000000000000E+00   0.00000000000000E+00   6.06118177395742E-06
      4.33833463476710E-19   6.06118177395785E-06   2.79347021795292E-15   0.00000000000000E+00   0.00000000000000E+00
      0.00000000000000E+00   0.00000000000000E+00   7.94834161310634E-17  -7.98569148906477E-17  -3.73498759584275E-19
     -4.37074515304380E-15   0.00000000000000E+00   0.00000000000000E+00   0.00000000000000E+00   0.00000000000000E+00
     -6.06118177395746E-06  -3.29251266568890E-20  -6.06118177395749E-06   1.58901553424298E-15   4.28464515555556E-03
      4.28464515555556E-03   0.00000000000000E+00   0.00000000000000E+00   0.00000000000000E+00   0.00000000000000E+00
      0.00000000000000E+00  -1.17405991521124E-17
      4.61401329540741E-03
      1.30000000000000E+00   1.30000000000000E+00   0.00000000000000E+00   0.00000000000000E+00   6.32763459904167E-06
     -4.37482142130681E-20   6.32763459904163E-06   2.79333336469173E-15   0.00000000000000E+00   0.00000000000000E+00
      0.00000000000000E+00   0.00000000000000E+00   7.88299547489421E-17  -7.84086923192137E-17   4.21262429728419E-19
     -4.37090242198624E-15   0.00000000000000E+00   0.00000000000000E+00   0.00000000000000E+00   0.00000000000000E+00
     -6.32763459904106E-06  -1.00356657681569E-18  -6.32763459904206E-06   1.58873028703408E-15   5.99821728402963E-03
      5.99821728402963E-03   0.00000000000000E+00   0.00000000000000E+00   0.00000000000000E+00   0.00000000000000E+00
      0.00000000000000E+00  -1.11612297395698E-17
      6.06044392282706E-03
      1.30000000000000E+00   1.30000000000000E+00   0.00000000000000E+00   0.00000000000000E+00   6.63143553374763E-06
     -2.08385295406304E-19   6.63143553374742E-06   2.79318183442019E-15   0.00000000000000E+00   0.00000000000000E+00
      0.00000000000000E+00   0.00000000000000E+00   7.94642798897451E-17  -7.97584440911938E-17  -2.94164201448661E-19
     -4.37107767104731E-15   0.00000000000000E+00   0.00000000000000E+00   0.00000000000000E+00   0.00000000000000E+00
     -6.63143553374765E-06   5.10821624767678E-19  -6.63143553374714E-06   1.58841669284499E-15   7.87857709967518E-03
      7.87857709967518E-03   0.00000000000000E+00   0.00000000000000E+00   0.00000000000000E+00   0.00000000000000E+00
      0.00000000000000E+00  -1.05208562178748E-17
      7.64766046464890E-03
      1.30000000000000E+00   1.30000000000000E+00   0.00000000000000E+00   0.00000000000000E+00   6.97891887773511E-06
     -1.37931341612372E-19   6.97891887773498E-06   2.79301387639863E-15   0.00000000000000E+00   0.00000000000000E+00
      0.00000000000000E+00   0.00000000000000E+00   7.90010524569901E-17  -7.92237696355446E-17  -2.22717178554469E-19
     -4.37127327490215E-15   0.00000000000000E+00   0.00000000000000E+00   0.00000000000000E+00   0.00000000000000E+00
     -6.97891887773467E-06  -9.43075504343785E-20  -6.97891887773476E-06   1.58807189081884E-15   9.94195860404357E-03
      9.94195860404357E-03   0.00000000000000E+00   0.00000000000000E+00   0.00000000000000E+00   0.00000000000000E+00
      0.00000000000000E+00  -9.81249231532201E-18
      9.38936608320806E-03
      1.30000000000000E+00   1.30000000000000E+00   0.00000000000000E+00   0.00000000000000E+00   7.37770027511836E-06
      2.43561428273703E-20   7.37770027511839E-06   2.79282748936591E-15   0.00000000000000E+00   0.00000000000000E+00
      0.00000000000000E+00   0.00000000000000E+00   7.93188914485241E-17  -7.94276789579195E-17  -1.08787509395420E-19
     -4.37149199129117E-15   0.00000000000000E+00   0.00000000000000E+00   0.00000000000000E+00   0.00000000000000E+00
     -7.37770027511823E-06  -5.26866152247429E-20  -7.37770027511829E-06   1.58769272730990E-15   1.22061759081705E-02
      1.22061759081705E-02   0.00000000000000E+00   0.00000000000000E+00   0.00000000000000E+00   0.00000000000000E+00
      0.00000000000000E+00  -9.02822538464454E-18
      1.13005977153070E-02
      1.30000000000000E+00   1.30000000000000E+00   0.00000000000000E+00   0.00000000000000E+00   7.83696925611291E-06
     -5.10318285879280E-19   7.83696925611240E-06   2.79262037778316E-15   0.00000000000000E+00   0.00000000000000E+00
      0.00000000000000E+00   0.00000000000000E+00   7.82376232365254E-17  -7.83344521447145E-17  -9.68289081890989E-20
     -4.37173703912597E-15   0.00000000000000E+00   0.00000000000000E+00   0.00000000000000E+00   0.00000000000000E+00
     -7.83696925611170E-06  -6.11240068203567E-19  -7.83696925611231E-06   1.58727572705386E-15   1.46907770298991E-02
      1.46907770298991E-02   0.00000000000000E+00   0.00000000000000E+00   0.00000000000000E+00   0.00000000000000E+00
      0.00000000000000E+00  -8.15906571106732E-18
      1.33978558929302E-02
      1.30000000000000E+00   1.30000000000000E+00   0.00000000000000E+00   0.00000000000000E+00   8.36785304192095E-06
      1.71801008641652E-20   8.36785304192097E-06   2.79238989590098E-15   0.00000000000000E+00   0.00000000000000E+00
      0.00000000000000E+00   0.00000000000000E+00   7.76813239515852E-17  -7.97722811303706E-17  -2.09095717878548E-18
     -4.37201218145110E-15   0.00000000000000E+00   0.00000000000000E+00   0.00000000000000E+00   0.00000000000000E+00
     -8.36785304191919E-06   2.99089261453847E-19  -8.36785304191889E-06   1.58681706155821E-15   1.74172126608093E-02
      1.74172126608093E-02   0.00000000000000E+00   0.00000000000000E+00   0.00000000000000E+00   0.00000000000000E+00
      0.00000000000000E+00  -7.19477600808953E-18
      1.56992471998421E-02
      1.30000000000000E+00   1.30000000000000E+00   0.00000000000000E+00   0.00000000000000E+00   8.98386266717435E-06
     -2.45198605380349E-19   8.98386266717411E-06   2.79213298154272E-15   0.00000000000000E+00   0.00000000000000E+00
      0.00000000000000E+00   0.00000000000000E+00   7.55761907819044E-17  -7.89625419996153E-17  -3.38635121771089E-18
     -4.37232186444277E-15   0.00000000000000E+00   0.00000000000000E+00   0.00000000000000E+00   0.00000000000000E+00
     -8.98386266717049E-06  -2.48272676198604E-19  -8.98386266717074E-06   1.58631251744603E-15   2.04090213597947E-02
      2.04090213597947E-02   0.00000000000000E+00   0.00000000000000E+00   0.00000000000000E+00   0.00000000000000E+00
      0.00000000000000E+00  -6.12363454597410E-18
      1.82246405939600E-02
      1.30000000000000E+00   1.30000000000000E+00   0.00000000000000E+00   0.00000000000000E+00   9.70144953230553E-06
     -1.80129873893177E-19   9.70144953230535E-06   2.79184608155872E-15   0.00000000000000E+00   0.00000000000000E+00
      0.00000000000000E+00   0.00000000000000E+00   7.00828127879862E-17  -7.93451722870981E-17  -9.26235949911191E-18
     -4.37267131034972E-15   0.00000000000000E+00   0.00000000000000E+00   0.00000000000000E+00   0.00000000000000E+00
     -9.70144953229619E-06   6.92870696027725E-20  -9.70144953229612E-06   1.58575745999783E-15   2.36920327721480E-02
      2.36920327721480E-02   0.00000000000000E+00   0.00000000000000E+00   0.00000000000000E+00   0.00000000000000E+00
      0.00000000000000E+00  -4.93223120682706E-18
      2.09958389451055E-02
      1.30000000000000E+00   1.30000000000000E+00   0.00000000000000E+00   0.00000000000000E+00   1.05406811779721E-05
      3.98928689075145E-19   1.05406811779725E-05   2.79152504530745E-15   0.00000000000000E+00   0.00000000000000E+00
      0.00000000000000E+00   0.00000000000000E+00   5.50538292300806E-17  -7.89861470323265E-17  -2.39323178022459E-17
     -4.37306668540276E-15   0.00000000000000E+00   0.00000000000000E+00   0.00000000000000E+00   0.00000000000000E+00
     -1.05406811779477E-05  -8.68798921013750E-19  -1.05406811779486E-05   1.58514679754878E-15   2.72945906286371E-02
      2.72945906286371E-02   0.00000000000000E+00   0.00000000000000E+00   0.00000000000000E+00   0.00000000000000E+00
      0.00000000000000E+00  -3.60515745347493E-18
      2.40367672690957E-02
      1.30000000000000E+00   1.30000000000000E+00   0.00000000000000E+00   0.00000000000000E+00   1.15260626112899E-05
      1.91266524176120E-19   1.15260626112901E-05   2.79116500707912E-15   0.00000000000000E+00   0.00000000000000E+00
      0.00000000000000E+00   0.00000000000000E+00   2.04030615318459E-17  -7.83355820829656E-17  -5.79325205511197E-17
     -4.37351527204006E-15   0.00000000000000E+00   0.00000000000000E+00   0.00000000000000E+00   0.00000000000000E+00
     -1.15260626112309E-05  -1.31170432204430E-18  -1.15260626112322E-05   1.58447494498194E-15   3.12477974498245E-02
      3.12477974498245E-02   0.00000000000000E+00   0.00000000000000E+00   0.00000000000000E+00   0.00000000000000E+00
      0.00000000000000E+00  -2.12468002099727E-18
      2.73736792832877E-02
      1.30000000000000E+00   1.30000000000000E+00   0.00000000000000E+00   0.00000000000000E+00   1.26875134901762E-05
     -5.54635607285463E-20   1.26875134901761E-05   2.79076026065393E-15   0.00000000000000E+00   0.00000000000000E+00
      0.00000000000000E+00   0.00000000000000E+00  -5.99774617467132E-17  -7.99344957173586E-17  -1.39911957464072E-16
     -4.37402573087817E-15   0.00000000000000E+00   0.00000000000000E+00   0.00000000000000E+00   0.00000000000000E+00
     -1.26875134900367E-05   5.33936237118868E-19  -1.26875134900362E-05   1.58373578952595E-15   3.55857830682741E-02
      3.55857830682741E-02   0.00000000000000E+00   0.00000000000000E+00   0.00000000000000E+00   0.00000000000000E+00
      0.00000000000000E+00  -4.70319301707778E-19
      3.10353840668611E-02
      1.30000000000000E+00   1.30000000000000E+00   0.00000000000000E+00   0.00000000000000E+00   1.40615202766308E-05
      5.98378968358516E-20   1.40615202766308E-05   2.79030408059195E-15   0.00000000000000E+00   0.00000000000000E+00
      0.00000000000000E+00   0.00000000000000E+00  -2.48505854984617E-16  -7.87383185666477E-17  -3.27244173551265E-16
     -4.37460833493620E-15   0.00000000000000E+00   0.00000000000000E+00   0.00000000000000E+00   0.00000000000000E+00
     -1.40615202763028E-05  -7.77546197371088E-19  -1.40615202763036E-05   1.58292265633697E-15   4.03459992869194E-02
      4.03459992869194E-02   0.00000000000000E+00   0.00000000000000E+00   0.00000000000000E+00   0.00000000000000E+00
      0.00000000000000E+00   1.38159800728016E-18
      3.50534947827022E-02
      1.30000000000000E+00   1.30000000000000E+00   0.00000000000000E+00   0.00000000000000E+00   1.56924613159228E-05
      1.56373139815764E-19   1.56924613159230E-05   2.78978854554787E-15   0.00000000000000E+00   0.00000000000000E+00
      0.00000000000000E+00   0.00000000000000E+00  -6.81168288933910E-16  -8.04094386235000E-17  -7.61577727557410E-16
     -4.37527525056865E-15   0.00000000000000E+00   0.00000000000000E+00   0.00000000000000E+00   0.00000000000000E+00
     -1.56924613151622E-05   7.97033973226747E-19  -1.56924613151614E-05   1.58202827471861E-15   4.55695432175129E-02
      4.55695432175129E-02   0.00000000000000E+00   0.00000000000000E+00   0.00000000000000E+00   0.00000000000000E+00
      0.00000000000000E+00   3.45843030216365E-18
      3.94627016082186E-02
      1.30000000000000E+00   1.30000000000000E+00   0.00000000000000E+00   0.00000000000000E+00   1.76340774792583E-05
      4.73961868104217E-19   1.76340774792588E-05   2.78920431618591E-15   0.00000000000000E+00   0.00000000000000E+00
      0.00000000000000E+00   0.00000000000000E+00  -1.64939718922955E-15  -7.92738460729940E-17  -1.72867103530255E-15
     -4.37604083660718E-15   0.00000000000000E+00   0.00000000000000E+00   0.00000000000000E+00   0.00000000000000E+00
     -1.76340774775295E-05  -6.56152949627080E-19  -1.76340774775301E-05   1.58104474808346E-15   5.13015120906842E-02
      5.13015120906842E-02   0.00000000000000E+00   0.00000000000000E+00   0.00000000000000E+00   0.00000000000000E+00
      0.00000000000000E+00   5.79177233779213E-18
      4.43010712314185E-02
      1.30000000000000E+00   1.30000000000000E+00   0.00000000000000E+00   0.00000000000000E+00   1.99510419739643E-05
     -9.80470446028383E-19   1.99510419739633E-05   2.78854039864982E-15   0.00000000000000E+00   0.00000000000000E+00
      0.00000000000000E+00   0.00000000000000E+00  -3.73616618335685E-15  -7.92159242652182E-17  -3.81538210762207E-15
     -4.37692194883608E-15   0.00000000000000E+00   0.00000000000000E+00   0.00000000000000E+00   0.00000000000000E+00
     -1.99510419701487E-05   7.40350689348653E-19  -1.99510419701480E-05   1.57996352434070E-15   5.75913926008441E-02
      5.75913926008441E-02   0.00000000000000E+00   0.00000000000000E+00   0.00000000000000E+00   0.00000000000000E+00
      0.00000000000000E+00   8.41802584556758E-18
      4.96103754979433E-02
      1.30000000000000E+00   1.30000000000000E+00   0.00000000000000E+00   0.00000000000000E+00   2.27205286366326E-05
     -1.12248140679227E-18   2.27205286366314E-05   2.78778388155799E-15   0.00000000000000E+00   0.00000000000000E+00
      0.00000000000000E+00   0.00000000000000E+00  -8.03123379864219E-15  -7.77646024614710E-17  -8.10899840110366E-15
     -4.37793826907744E-15   0.00000000000000E+00   0.00000000000000E+00   0.00000000000000E+00   0.00000000000000E+00
     -2.27205286285219E-05  -5.68968511417566E-19  -2.27205286285225E-05   1.57877536742248E-15   6.44934881473263E-02
      6.44934881473263E-02   0.00000000000000E+00   0.00000000000000E+00   0.00000000000000E+00   0.00000000000000E+00
      0.00000000000000E+00   1.13790200969671E-17
      5.54364520464098E-02
      1.30000000000000E+00   1.30000000000000E+00   0.00000000000000E+00   0.00000000000000E+00   2.60337088254165E-05
     -2.49551951634953E-18   2.60337088254140E-05   2.78691974113767E-15   0.00000000000000E+00   0.00000000000000E+00
      0.00000000000000E+00   0.00000000000000E+00  -1.63521763107976E-14  -7.66296697031434E-17  -1.64288059805007E-14
     -4.37911243892519E-15   0.00000000000000E+00   0.00000000000000E+00   0.00000000000000E+00   0.00000000000000E+00
     -2.60337088089849E-05  -3.30873325289864E-19  -2.60337088089852E-05   1.57747031226491E-15   7.20673876603327E-02
      7.20673876603327E-02   0.00000000000000E+00   0.00000000000000E+00   0.00000000000000E+00   0.00000000000000E+00
      0.00000000000000E+00   1.47223855226065E-17
      6.18296000455937E-02
      1.30000000000000E+00   1.30000000000000E+00   0.00000000000000E+00   0.00000000000000E+00   2.99969018208636E-05
     -6.37872668308341E-18   2.99969018208572E-05   2.78593055227205E-15   0.00000000000000E+00   0.00000000000000E+00
      0.00000000000000E+00   0.00000000000000E+00  -3.13787737895946E-14  -6.99970505533867E-17  -3.14487708401479E-14
     -4.38047032615075E-15   0.00000000000000E+00   0.00000000000000E+00   0.00000000000000E+00   0.00000000000000E+00
     -2.99969017894054E-05  -3.08029765269318E-18  -2.99969017894084E-05   1.57603762522598E-15   8.03784800592718E-02
      8.03784800592718E-02   0.00000000000000E+00   0.00000000000000E+00   0.00000000000000E+00   0.00000000000000E+00
      0.00000000000000E+00   1.85021486527179E-17
      6.88450144500315E-02
      1.30000000000000E+00   1.30000000000000E+00   0.00000000000000E+00   0.00000000000000E+00   3.47323075502157E-05
     -1.24586851322943E-17   3.47323075502032E-05   2.78479629626610E-15   0.00000000000000E+00   0.00000000000000E+00
      0.00000000000000E+00   0.00000000000000E+00  -5.62446774781693E-14  -6.30128830048331E-17  -5.63076903611741E-14
     -4.38204102314831E-15   0.00000000000000E+00   0.00000000000000E+00   0.00000000000000E+00   0.00000000000000E+00
     -3.47323074938916E-05  -3.98452170392163E-18  -3.47323074938956E-05   1.57446573491755E-15   8.94985187850409E-02
      8.94985187850409E-02   0.00000000000000E+00   0.00000000000000E+00   0.00000000000000E+00   0.00000000000000E+00
      0.00000000000000E+00   2.27789919646719E-17
      7.65432625231679E-02
      1.30000000000000E+00   1.30000000000000E+00   0.00000000000000E+00   0.00000000000000E+00   4.03777167559422E-05
     -2.54250573100213E-17   4.03777167559168E-05   2.78349413342309E-15   0.00000000000000E+00   0.00000000000000E+00
      0.00000000000000E+00   0.00000000000000E+00  -9.38304110875824E-14  -4.73652398583030E-17  -9.38777763274407E-14
     -4.38385762672188E-15   0.00000000000000E+00   0.00000000000000E+00   0.00000000000000E+00   0.00000000000000E+00
     -4.03777166620324E-05  -6.66581071360002E-18  -4.03777166620391E-05   1.57274220278374E-15   9.95062412801182E-02
      9.95062412801182E-02   0.00000000000000E+00   0.00000000000000E+00   0.00000000000000E+00   0.00000000000000E+00
      0.00000000000000E+00   2.76212905150444E-17
      8.49908067420896E-02
      1.30000000000000E+00   1.30000000000000E+00   0.00000000000000E+00   0.00000000000000E+00   4.70861459090353E-05
     -4.69802208737379E-17   4.70861459089883E-05   2.78199858161022E-15   0.00000000000000E+00   0.00000000000000E+00
      0.00000000000000E+00   0.00000000000000E+00  -1.31441474176794E-13  -2.09056890813335E-17  -1.31462379865876E-13
     -4.38595598959610E-15   0.00000000000000E+00   0.00000000000000E+00   0.00000000000000E+00   0.00000000000000E+00
     -4.70861457775144E-05  -1.15702196002170E-17  -4.70861457775260E-05   1.57085353653398E-15   1.10488048764716E-01
      1.10488048764716E-01   0.00000000000000E+00   0.00000000000000E+00   0.00000000000000E+00   0.00000000000000E+00
      0.00000000000000E+00   3.31038714519034E-17
      9.42605785983196E-02
      1.30000000000000E+00   1.30000000000000E+00   0.00000000000000E+00   0.00000000000000E+00   5.50248986342324E-05
     -7.34800435860686E-17   5.50248986341589E-05   2.78028139175020E-15   0.00000000000000E+00   0.00000000000000E+00
      0.00000000000000E+00   0.00000000000000E+00  -1.95887875394637E-13   1.03946024279091E-17  -1.95877480792210E-13
     -4.38837318171792E-15   0.00000000000000E+00   0.00000000000000E+00   0.00000000000000E+00   0.00000000000000E+00
     -5.50248984382651E-05  -1.63707142929182E-17  -5.50248984382814E-05   1.56878499204331E-15   1.22538752177816E-01
      1.22538752177816E-01   0.00000000000000E+00   0.00000000000000E+00   0.00000000000000E+00   0.00000000000000E+00
      0.00000000000000E+00   3.93067979244025E-17
      1.04432608248556E-01
      1.30000000000000E+00   1.30000000000000E+00   0.00000000000000E+00   0.00000000000000E+00   6.43721416312162E-05
     -1.12909175131661E-16   6.43721416311033E-05   2.77831150534005E-15   0.00000000000000E+00   0.00000000000000E+00
      0.00000000000000E+00   0.00000000000000E+00  -2.51680143052303E-13   5.70446404801976E-17  -2.51623098411822E-13
     -4.39114936417146E-15   0.00000000000000E+00   0.00000000000000E+00   0.00000000000000E+00   0.00000000000000E+00
     -6.43721413794566E-05  -2.35916515492068E-17  -6.43721413794802E-05   1.56652060779883E-15   1.35762390723123E-01
      1.35762390723123E-01   0.00000000000000E+00   0.00000000000000E+00   0.00000000000000E+00   0.00000000000000E+00
      0.00000000000000E+00   4.63172510325832E-17
      1.15594715451416E-01
      1.30000000000000E+00   1.30000000000000E+00   0.00000000000000E+00   0.00000000000000E+00   7.53141370446432E-05
     -1.63396757599509E-16   7.53141370444798E-05   2.77605542004304E-15   0.00000000000000E+00   0.00000000000000E+00
      0.00000000000000E+00   0.00000000000000E+00  -3.04800381254205E-13   1.12689708010372E-16  -3.04687691546194E-13
     -4.39432625914625E-15   0.00000000000000E+00   0.00000000000000E+00   0.00000000000000E+00   0.00000000000000E+00
     -7.53141367397634E-05  -2.87491728647329E-17  -7.53141367397922E-05   1.56404302267806E-15   1.50273130086840E-01
      1.50273130086840E-01   0.00000000000000E+00   0.00000000000000E+00   0.00000000000000E+00   0.00000000000000E+00
      0.00000000000000E+00   5.42278164251537E-17
      1.27843267755353E-01
      1.30000000000000E+00   1.30000000000000E+00   0.00000000000000E+00   0.00000000000000E+00   8.80411981387372E-05
     -2.28251099459402E-16   8.80411981385090E-05   2.77347734957970E-15   0.00000000000000E+00   0.00000000000000E+00
      0.00000000000000E+00   0.00000000000000E+00  -3.70526653871660E-13   1.83448339951857E-16  -3.70343205531708E-13
     -4.39794654765760E-15   0.00000000000000E+00   0.00000000000000E+00   0.00000000000000E+00   0.00000000000000E+00
     -8.80411977681311E-05  -3.46535053707441E-17  -8.80411977681658E-05   1.56133342612584E-15   1.66196248081959E-01
      1.66196248081959E-01   0.00000000000000E+00   0.00000000000000E+00   0.00000000000000E+00   0.00000000000000E+00
      0.00000000000000E+00   6.31357719520560E-17
      1.41284012483541E-01
      1.30000000000000E+00   1.30000000000000E+00   0.00000000000000E+00   0.00000000000000E+00   1.02742816090754E-04
      3.38713943806840E-20   1.02742816090754E-04   2.77053945639082E-15   0.00000000000000E+00   0.00000000000000E+00
      0.00000000000000E+00   0.00000000000000E+00   7.63277819517994E-17  -8.04503863489381E-17  -4.12260439713866E-18
     -4.40205312041552E-15   0.00000000000000E+00   0.00000000000000E+00   0.00000000000000E+00   0.00000000000000E+00
     -1.02742816090751E-04   9.60200822967943E-19  -1.02742816090750E-04   1.55837158695770E-15   1.83669216228603E-01
      1.83669216228603E-01   0.00000000000000E+00   0.00000000000000E+00   0.00000000000000E+00   0.00000000000000E+00
      0.00000000000000E+00   7.31420770669994E-17
      1.55997147712664E-01
      1.30000000000000E+00   1.30000000000000E+00   0.00000000000000E+00   0.00000000000000E+00   1.19559269601183E-04
      1.13298008903199E-19   1.19559269601183E-04   2.76720994665445E-15   0.00000000000000E+00   0.00000000000000E+00
      0.00000000000000E+00   0.00000000000000E+00   8.05960625533360E-17  -7.92564941106287E-17   1.33956844270735E-18
     -4.40667735836680E-15   0.00000000000000E+00   0.00000000000000E+00   0.00000000000000E+00   0.00000000000000E+00
     -1.19559269601184E-04  -3.13174591092474E-19  -1.19559269601185E-04   1.55514386646385E-15   2.02796292026463E-01
      2.02796292026463E-01   0.00000000000000E+00   0.00000000000000E+00   0.00000000000000E+00   0.00000000000000E+00
      0.00000000000000E+00   8.43235452484847E-17
      1.72103126410144E-01
      1.30000000000000E+00   1.30000000000000E+00   0.00000000000000E+00   0.00000000000000E+00   1.38641773924839E-04
     -5.42830433756533E-19   1.38641773924838E-04   2.76344452007901E-15   0.00000000000000E+00   0.00000000000000E+00
      0.00000000000000E+00   0.00000000000000E+00   7.40431080997334E-17  -7.92797656068455E-17  -5.23665750711218E-18
     -4.41185908007457E-15   0.00000000000000E+00   0.00000000000000E+00   0.00000000000000E+00   0.00000000000000E+00
     -1.38641773924833E-04   3.66161017827493E-19  -1.38641773924833E-04   1.55162927769238E-15   2.23734064333187E-01
      2.23734064333187E-01   0.00000000000000E+00   0.00000000000000E+00   0.00000000000000E+00   0.00000000000000E+00
      0.00000000000000E+00   9.67852823031848E-17
      1.89733804424318E-01
      1.30000000000000E+00   1.30000000000000E+00   0.00000000000000E+00   0.00000000000000E+00   1.60124365243877E-04
     -4.23818754513645E-19   1.60124365243876E-04   2.75920856550164E-15   0.00000000000000E+00   0.00000000000000E+00
      0.00000000000000E+00   0.00000000000000E+00   7.93191894811168E-17  -7.95053417519110E-17  -1.86152270794214E-19
     -4.41763336183621E-15   0.00000000000000E+00   0.00000000000000E+00   0.00000000000000E+00   0.00000000000000E+00
     -1.60124365243877E-04   4.72652985178636E-19  -1.60124365243876E-04   1.54780586156816E-15   2.46653945751614E-01
      2.46653945751614E-01   0.00000000000000E+00   0.00000000000000E+00   0.00000000000000E+00   0.00000000000000E+00
      0.00000000000000E+00   1.10618934766418E-16
      2.09033519957168E-01
      1.30000000000000E+00   1.30000000000000E+00   0.00000000000000E+00   0.00000000000000E+00   1.84103898369760E-04
     -1.43973853444113E-19   1.84103898369760E-04   2.75446630009563E-15   0.00000000000000E+00   0.00000000000000E+00
      0.00000000000000E+00   0.00000000000000E+00   7.65390726893451E-17  -8.01364213057913E-17  -3.59734861644622E-18
     -4.42403220147849E-15   0.00000000000000E+00   0.00000000000000E+00   0.00000000000000E+00   0.00000000000000E+00
     -1.84103898369758E-04   8.23806725594777E-19  -1.84103898369757E-04   1.54365178086015E-15   2.71743575944319E-01
      2.71743575944319E-01   0.00000000000000E+00   0.00000000000000E+00   0.00000000000000E+00   0.00000000000000E+00
      0.00000000000000E+00   1.25914120522707E-16
      2.30160275227128E-01
      1.30000000000000E+00   1.30000000000000E+00   0.00000000000000E+00   0.00000000000000E+00   2.10625989541711E-04
     -5.97791906698545E-19   2.10625989541711E-04   2.74918041945497E-15   0.00000000000000E+00   0.00000000000000E+00
      0.00000000000000E+00   0.00000000000000E+00   7.69566671023116E-17  -7.85803965207935E-17  -1.62372941848191E-18
     -4.43108027436585E-15   0.00000000000000E+00   0.00000000000000E+00   0.00000000000000E+00   0.00000000000000E+00
     -2.10625989541709E-04  -2.78489349756204E-19  -2.10625989541709E-04   1.53914585261422E-15   2.99208357795266E-01
      2.99208357795266E-01   0.00000000000000E+00   0.00000000000000E+00   0.00000000000000E+00   0.00000000000000E+00
      0.00000000000000E+00   1.42754002296655E-16