DF-ISE text

Info {
  version   = 1.0
  type      = xyplot
  datasets  = [
    "time"
    "Drain_contact OuterVoltage" "Drain_contact InnerVoltage" "Drain_contact QuasiFermiPotential" "Drain_contact DisplacementCurrent" "Drain_contact eCurrent"
    "Drain_contact hCurrent" "Drain_contact TotalCurrent" "Drain_contact Charge" "Body_contact OuterVoltage" "Body_contact InnerVoltage"
    "Body_contact QuasiFermiPotential" "Body_contact DisplacementCurrent" "Body_contact eCurrent" "Body_contact hCurrent" "Body_contact TotalCurrent"
    "Body_contact Charge" "Source_contact OuterVoltage" "Source_contact InnerVoltage" "Source_contact QuasiFermiPotential" "Source_contact DisplacementCurrent"
    "Source_contact eCurrent" "Source_contact hCurrent" "Source_contact TotalCurrent" "Source_contact Charge" "Gate_contact OuterVoltage"
    "Gate_contact InnerVoltage" "Gate_contact QuasiFermiPotential" "Gate_contact DisplacementCurrent" "Gate_contact eCurrent" "Gate_contact hCurrent"
    "Gate_contact TotalCurrent" "Gate_contact Charge" ]
  functions = [
    Time
    OuterVoltage InnerVoltage QuasiFermiPotential DisplacementCurrent eCurrent
    hCurrent TotalCurrent Charge OuterVoltage InnerVoltage
    QuasiFermiPotential DisplacementCurrent eCurrent hCurrent TotalCurrent
    Charge OuterVoltage InnerVoltage QuasiFermiPotential DisplacementCurrent
    eCurrent hCurrent TotalCurrent Charge OuterVoltage
    InnerVoltage QuasiFermiPotential DisplacementCurrent eCurrent hCurrent
    TotalCurrent Charge ]
}

Data {
      0.00000000000000E+00
      1.30000000000000E+00   1.30000000000000E+00   0.00000000000000E+00   0.00000000000000E+00   2.22410111217173E-18
     -6.78608739310567E-18  -4.56198628093394E-18   2.39848910029792E-15   0.00000000000000E+00   0.00000000000000E+00
      0.00000000000000E+00   0.00000000000000E+00   3.56605366134470E-09   3.27407380093988E-17   3.56605369408543E-09
     -3.86129278482730E-15   0.00000000000000E+00   0.00000000000000E+00   0.00000000000000E+00   0.00000000000000E+00
     -3.56605364554562E-09  -4.39778254937956E-17  -3.56605368952345E-09   1.38937707433016E-15   0.00000000000000E+00
      0.00000000000000E+00   0.00000000000000E+00   0.00000000000000E+00   0.00000000000000E+00   0.00000000000000E+00
      0.00000000000000E+00   7.34266101992202E-17
      0.00000000000000E+00
      1.30000000000000E+00   1.30000000000000E+00   0.00000000000000E+00   0.00000000000000E+00   9.91521218232436E-09
      3.18308898264243E-19   9.91521218264267E-09   2.39848743957982E-15   0.00000000000000E+00   0.00000000000000E+00
      0.00000000000000E+00   0.00000000000000E+00   7.90460155393627E-17  -7.84387579342080E-17   6.07257605154732E-19
     -3.86129515999941E-15   0.00000000000000E+00   0.00000000000000E+00   0.00000000000000E+00   0.00000000000000E+00
     -9.91521218190368E-09  -1.34623889551297E-18  -9.91521218324992E-09   1.38937875925815E-15   0.00000000000000E+00
      0.00000000000000E+00   0.00000000000000E+00   0.00000000000000E+00   0.00000000000000E+00   0.00000000000000E+00
      0.00000000000000E+00   7.34289611614384E-17
      1.00000000000000E-03
      1.30000000000000E+00   1.30000000000000E+00   0.00000000000000E+00   0.00000000000000E+00   1.01601642156200E-08
      6.53428948330239E-19   1.01601642162734E-08   2.39844599649376E-15   0.00000000000000E+00   0.00000000000000E+00
      0.00000000000000E+00   0.00000000000000E+00   7.94370669242058E-17  -8.21636323746319E-17  -2.72656545042609E-18
     -3.86138540869108E-15   0.00000000000000E+00   0.00000000000000E+00   0.00000000000000E+00   0.00000000000000E+00
     -1.01601642155903E-08   2.04351992772646E-18  -1.01601642135468E-08   1.38932601766468E-15   1.30000000000000E-03
      1.30000000000000E-03   0.00000000000000E+00   0.00000000000000E+00   0.00000000000000E+00   0.00000000000000E+00
      0.00000000000000E+00   7.36133945326374E-17
      2.09466666666667E-03
      1.30000000000000E+00   1.30000000000000E+00   0.00000000000000E+00   0.00000000000000E+00   1.04348991669118E-08
     -1.51977109309312E-18   1.04348991653920E-08   2.39840062874463E-15   0.00000000000000E+00   0.00000000000000E+00
      0.00000000000000E+00   0.00000000000000E+00   7.94367771908012E-17  -7.78053545470511E-17   1.63142264375005E-18
     -3.86148418781544E-15   0.00000000000000E+00   0.00000000000000E+00   0.00000000000000E+00   0.00000000000000E+00
     -1.04348991668819E-08  -1.41553011526467E-19  -1.04348991670234E-08   1.38926826614487E-15   2.72306666666667E-03
      2.72306666666667E-03   0.00000000000000E+00   0.00000000000000E+00   0.00000000000000E+00   0.00000000000000E+00
      0.00000000000000E+00   7.38152929259384E-17
      3.29588088888889E-03
      1.30000000000000E+00   1.30000000000000E+00   0.00000000000000E+00   0.00000000000000E+00   1.07444988080030E-08
     -2.56085996264458E-19   1.07444988077469E-08   2.39835084351219E-15   0.00000000000000E+00   0.00000000000000E+00
      0.00000000000000E+00   0.00000000000000E+00   7.94369510730103E-17  -7.87079476820792E-17   7.29003390931101E-19
     -3.86159256569858E-15   0.00000000000000E+00   0.00000000000000E+00   0.00000000000000E+00   0.00000000000000E+00
     -1.07444988079733E-08  -5.02639661427344E-19  -1.07444988084759E-08   1.38920487286833E-15   4.28464515555556E-03
      4.28464515555556E-03   0.00000000000000E+00   0.00000000000000E+00   0.00000000000000E+00   0.00000000000000E+00
      0.00000000000000E+00   7.40368493180541E-17
      4.61401329540741E-03
      1.30000000000000E+00   1.30000000000000E+00   0.00000000000000E+00   0.00000000000000E+00   1.10942756649517E-08
     -4.94828010426777E-19   1.10942756644569E-08   2.39829621045039E-15   0.00000000000000E+00   0.00000000000000E+00
      0.00000000000000E+00   0.00000000000000E+00   7.94370781553412E-17  -7.44202591180386E-17   5.01681903730260E-18
     -3.86171147344103E-15   0.00000000000000E+00   0.00000000000000E+00   0.00000000000000E+00   0.00000000000000E+00
     -1.10942756649222E-08  -4.55158039054451E-18  -1.10942756694737E-08   1.38913528437000E-15   5.99821728402963E-03
      5.99821728402963E-03   0.00000000000000E+00   0.00000000000000E+00   0.00000000000000E+00   0.00000000000000E+00
      0.00000000000000E+00   7.42799786206290E-17
      6.06044392282706E-03
      1.30000000000000E+00   1.30000000000000E+00   0.00000000000000E+00   0.00000000000000E+00   1.14905438817093E-08
      1.02218837068783E-18   1.14905438827315E-08   2.39823625723700E-15   0.00000000000000E+00   0.00000000000000E+00
      0.00000000000000E+00   0.00000000000000E+00   7.94366790755962E-17  -8.18736056849466E-17  -2.43692660935040E-18
     -3.86184193213487E-15   0.00000000000000E+00   0.00000000000000E+00   0.00000000000000E+00   0.00000000000000E+00
     -1.14905438816793E-08   1.38475617271417E-18  -1.14905438802945E-08   1.38905889238714E-15   7.87857709967518E-03
      7.87857709967518E-03   0.00000000000000E+00   0.00000000000000E+00   0.00000000000000E+00   0.00000000000000E+00
      0.00000000000000E+00   7.45467825107384E-17
      7.64766046464890E-03
      1.30000000000000E+00   1.30000000000000E+00   0.00000000000000E+00   0.00000000000000E+00   1.19408498341306E-08
     -7.75629742196071E-19   1.19408498333550E-08   2.39817046546516E-15   0.00000000000000E+00   0.00000000000000E+00
      0.00000000000000E+00   0.00000000000000E+00   7.94367186613939E-17  -7.77354104337579E-17   1.70130822763597E-18
     -3.86198506149877E-15   0.00000000000000E+00   0.00000000000000E+00   0.00000000000000E+00   0.00000000000000E+00
     -1.19408498341007E-08  -9.55613979280217E-19  -1.19408498350563E-08   1.38897502832225E-15   9.94195860404357E-03
      9.94195860404357E-03   0.00000000000000E+00   0.00000000000000E+00   0.00000000000000E+00   0.00000000000000E+00
      0.00000000000000E+00   7.48395677113650E-17
      9.38936608320806E-03
      1.30000000000000E+00   1.30000000000000E+00   0.00000000000000E+00   0.00000000000000E+00   1.24542655480809E-08
      1.15518110845237E-18   1.24542655492361E-08   2.39809826612852E-15   0.00000000000000E+00   0.00000000000000E+00
      0.00000000000000E+00   0.00000000000000E+00   7.94364126191006E-17  -7.86234009093009E-17   8.13011709799709E-19
     -3.86214208933010E-15   0.00000000000000E+00   0.00000000000000E+00   0.00000000000000E+00   0.00000000000000E+00
     -1.24542655480507E-08  -1.99842670246117E-18  -1.24542655500491E-08   1.38888295712050E-15   1.22061759081705E-02
      1.22061759081705E-02   0.00000000000000E+00   0.00000000000000E+00   0.00000000000000E+00   0.00000000000000E+00
      0.00000000000000E+00   7.51608660810748E-17
      1.13005977153070E-02
      1.30000000000000E+00   1.30000000000000E+00   0.00000000000000E+00   0.00000000000000E+00   1.30417646259821E-08
     -1.97939242974578E-18   1.30417646240027E-08   2.39801903465838E-15   0.00000000000000E+00   0.00000000000000E+00
      0.00000000000000E+00   0.00000000000000E+00   7.94370544490225E-17  -8.25170746918184E-17  -3.08002024279591E-18
     -3.86231436185071E-15   0.00000000000000E+00   0.00000000000000E+00   0.00000000000000E+00   0.00000000000000E+00
     -1.30417646259525E-08   5.02982899751412E-18  -1.30417646209227E-08   1.38878187049371E-15   1.46907770298991E-02
      1.46907770298991E-02   0.00000000000000E+00   0.00000000000000E+00   0.00000000000000E+00   0.00000000000000E+00
      0.00000000000000E+00   7.55134566986241E-17
      1.33978558929302E-02
      1.30000000000000E+00   1.30000000000000E+00   0.00000000000000E+00   0.00000000000000E+00   1.37167073897760E-08
      6.69279141451140E-19   1.37167073904453E-08   2.39793208546630E-15   0.00000000000000E+00   0.00000000000000E+00
      0.00000000000000E+00   0.00000000000000E+00   7.94374343148457E-17  -8.29951995043010E-17  -3.55776518945530E-18
     -3.86250335502903E-15   0.00000000000000E+00   0.00000000000000E+00   0.00000000000000E+00   0.00000000000000E+00
     -1.37167073897468E-08   2.85929141230346E-18  -1.37167073868875E-08   1.38867087941289E-15   1.74172126608093E-02
      1.74172126608093E-02   0.00000000000000E+00   0.00000000000000E+00   0.00000000000000E+00   0.00000000000000E+00
      0.00000000000000E+00   7.59003901498419E-17
      1.56992471998421E-02
      1.30000000000000E+00   1.30000000000000E+00   0.00000000000000E+00   0.00000000000000E+00   1.44954717331087E-08
     -1.30941125102477E-18   1.44954717317992E-08   2.39783666594009E-15   0.00000000000000E+00   0.00000000000000E+00
      0.00000000000000E+00   0.00000000000000E+00   7.94374842849237E-17  -7.55909064738652E-17   3.84657781105854E-18
     -3.86271068696996E-15   0.00000000000000E+00   0.00000000000000E+00   0.00000000000000E+00   0.00000000000000E+00
     -1.44954717330795E-08  -2.56630108508102E-18  -1.44954717356458E-08   1.38854900578072E-15   2.04090213597947E-02
      2.04090213597947E-02   0.00000000000000E+00   0.00000000000000E+00   0.00000000000000E+00   0.00000000000000E+00
      0.00000000000000E+00   7.63250152491464E-17
      1.82246405939600E-02
      1.30000000000000E+00   1.30000000000000E+00   0.00000000000000E+00   0.00000000000000E+00   1.53982799709205E-08
      6.22089299001784E-19   1.53982799715426E-08   2.39773194983462E-15   0.00000000000000E+00   0.00000000000000E+00
      0.00000000000000E+00   0.00000000000000E+00   7.94366398768504E-17  -8.33228744547977E-17  -3.88623457794737E-18
     -3.86293813147334E-15   0.00000000000000E+00   0.00000000000000E+00   0.00000000000000E+00   0.00000000000000E+00
     -1.53982799708905E-08   3.23417750652607E-18  -1.53982799676563E-08   1.38841517318118E-15   2.36920327721480E-02
      2.36920327721480E-02   0.00000000000000E+00   0.00000000000000E+00   0.00000000000000E+00   0.00000000000000E+00
      0.00000000000000E+00   7.67910084575468E-17
      2.09958389451055E-02
      1.30000000000000E+00   1.30000000000000E+00   0.00000000000000E+00   0.00000000000000E+00   1.64502915933378E-08
      1.88859989121911E-18   1.64502915952264E-08   2.39761702999049E-15   0.00000000000000E+00   0.00000000000000E+00
      0.00000000000000E+00   0.00000000000000E+00   7.94369393901278E-17  -8.11019759908972E-17  -1.66503660076946E-18
     -3.86318763287261E-15   0.00000000000000E+00   0.00000000000000E+00   0.00000000000000E+00   0.00000000000000E+00
     -1.64502915933081E-08  -2.53219339466365E-19  -1.64502915935613E-08   1.38826819658773E-15   2.72945906286371E-02
      2.72945906286371E-02   0.00000000000000E+00   0.00000000000000E+00   0.00000000000000E+00   0.00000000000000E+00
      0.00000000000000E+00   7.73024062943982E-17
      2.40367672690957E-02
      1.30000000000000E+00   1.30000000000000E+00   0.00000000000000E+00   0.00000000000000E+00   1.76830599897432E-08
     -6.68534846417412E-19   1.76830599890746E-08   2.39749091030419E-15   0.00000000000000E+00   0.00000000000000E+00
      0.00000000000000E+00   0.00000000000000E+00   7.94362103683803E-17  -8.26322342940110E-17  -3.19602392563074E-18
     -3.86346132227934E-15   0.00000000000000E+00   0.00000000000000E+00   0.00000000000000E+00   0.00000000000000E+00
     -1.76830599897128E-08   3.83418705610462E-18  -1.76830599858786E-08   1.38810677089195E-15   3.12477974498245E-02
      3.12477974498245E-02   0.00000000000000E+00   0.00000000000000E+00   0.00000000000000E+00   0.00000000000000E+00
      0.00000000000000E+00   7.78636410832037E-17
      2.73736792832877E-02
      1.30000000000000E+00   1.30000000000000E+00   0.00000000000000E+00   0.00000000000000E+00   1.91364920149371E-08
     -2.50464229315177E-19   1.91364920146867E-08   2.39735249686105E-15   0.00000000000000E+00   0.00000000000000E+00
      0.00000000000000E+00   0.00000000000000E+00   7.94371193109822E-17  -7.73902603861420E-17   2.04685892484017E-18
     -3.86376153537669E-15   0.00000000000000E+00   0.00000000000000E+00   0.00000000000000E+00   0.00000000000000E+00
     -1.91364920149077E-08  -1.82584286641204E-18  -1.91364920167335E-08   1.38792945808988E-15   3.55857830682741E-02
      3.55857830682741E-02   0.00000000000000E+00   0.00000000000000E+00   0.00000000000000E+00   0.00000000000000E+00
      0.00000000000000E+00   7.84795804257635E-17
      3.10353840668611E-02
      1.30000000000000E+00   1.30000000000000E+00   0.00000000000000E+00   0.00000000000000E+00   2.08615089653266E-08
     -6.94743809437232E-19   2.08615089646319E-08   2.39720058812614E-15   0.00000000000000E+00   0.00000000000000E+00
      0.00000000000000E+00   0.00000000000000E+00   7.94366197212323E-17  -7.76012737265595E-17   1.83534599467277E-18
     -3.86409083192847E-15   0.00000000000000E+00   0.00000000000000E+00   0.00000000000000E+00   0.00000000000000E+00
     -2.08615089652967E-08  -1.17053398467022E-18  -2.08615089664672E-08   1.38773467293430E-15   4.03459992869194E-02
      4.03459992869194E-02   0.00000000000000E+00   0.00000000000000E+00   0.00000000000000E+00   0.00000000000000E+00
      0.00000000000000E+00   7.91555708680315E-17
      3.50534947827022E-02
      1.30000000000000E+00   1.30000000000000E+00   0.00000000000000E+00   0.00000000000000E+00   2.29236957506021E-08
      1.74440887167635E-18   2.29236957523465E-08   2.39703386406745E-15   0.00000000000000E+00   0.00000000000000E+00
      0.00000000000000E+00   0.00000000000000E+00   7.94361555358051E-17  -8.01653841590596E-17  -7.29228623254546E-19
     -3.86445201720327E-15   0.00000000000000E+00   0.00000000000000E+00   0.00000000000000E+00   0.00000000000000E+00
     -2.29236957505717E-08  -1.04555879363415E-18  -2.29236957516173E-08   1.38752066682343E-15   4.55695432175129E-02
      4.55695432175129E-02   0.00000000000000E+00   0.00000000000000E+00   0.00000000000000E+00   0.00000000000000E+00
      0.00000000000000E+00   7.98974863123859E-17
      3.94627016082186E-02
      1.30000000000000E+00   1.30000000000000E+00   0.00000000000000E+00   0.00000000000000E+00   2.54083567068501E-08
     -6.33303299339436E-19   2.54083567062168E-08   2.39685087405676E-15   0.00000000000000E+00   0.00000000000000E+00
      0.00000000000000E+00   0.00000000000000E+00   7.94367730459628E-17  -7.71675798155616E-17   2.26919323040119E-18
     -3.86484816556203E-15   0.00000000000000E+00   0.00000000000000E+00   0.00000000000000E+00   0.00000000000000E+00
     -2.54083567068203E-08  -1.66563191944993E-18  -2.54083567084859E-08   1.38728550965020E-15   5.13015120906842E-02
      5.13015120906842E-02   0.00000000000000E+00   0.00000000000000E+00   0.00000000000000E+00   0.00000000000000E+00
      0.00000000000000E+00   8.07117818550744E-17
      4.43010712314185E-02
      1.30000000000000E+00   1.30000000000000E+00   0.00000000000000E+00   0.00000000000000E+00   2.84275950115251E-08
      3.17668556390885E-19   2.84275950118428E-08   2.39665002335370E-15   0.00000000000000E+00   0.00000000000000E+00
      0.00000000000000E+00   0.00000000000000E+00   7.94375409920981E-17  -8.01655680299762E-17  -7.28027037878119E-19
     -3.86528264653241E-15   0.00000000000000E+00   0.00000000000000E+00   0.00000000000000E+00   0.00000000000000E+00
     -2.84275950114961E-08   3.81405230186109E-19  -2.84275950111147E-08   1.38702706927667E-15   5.75913926008441E-02
      5.75913926008441E-02   0.00000000000000E+00   0.00000000000000E+00   0.00000000000000E+00   0.00000000000000E+00
      0.00000000000000E+00   8.16055539020257E-17
      4.96103754979433E-02
      1.30000000000000E+00   1.30000000000000E+00   0.00000000000000E+00   0.00000000000000E+00   3.21303350026765E-08
     -8.21397671757180E-19   3.21303350018551E-08   2.39642955792099E-15   0.00000000000000E+00   0.00000000000000E+00
      0.00000000000000E+00   0.00000000000000E+00   7.94368888964422E-17  -7.72534351431269E-17   2.18345375331524E-18
     -3.86575915381284E-15   0.00000000000000E+00   0.00000000000000E+00   0.00000000000000E+00   0.00000000000000E+00
     -3.21303350026469E-08  -1.39163861536409E-18  -3.21303350040386E-08   1.38674298822265E-15   6.44934881473263E-02
      6.44934881473263E-02   0.00000000000000E+00   0.00000000000000E+00   0.00000000000000E+00   0.00000000000000E+00
      0.00000000000000E+00   8.25866076692093E-17
      5.54364520464098E-02
      1.30000000000000E+00   1.30000000000000E+00   0.00000000000000E+00   0.00000000000000E+00   3.67166717912335E-08
     -3.12574425656805E-19   3.67166717909209E-08   2.39618754723675E-15   0.00000000000000E+00   0.00000000000000E+00
      0.00000000000000E+00   0.00000000000000E+00   7.94383051673158E-17  -7.99229086833416E-17  -4.84603516025861E-19
     -3.86628173784824E-15   0.00000000000000E+00   0.00000000000000E+00   0.00000000000000E+00   0.00000000000000E+00
     -3.67166717912053E-08   7.69036554689693E-19  -3.67166717904363E-08   1.38643065705922E-15   7.20673876603327E-02
      7.20673876603327E-02   0.00000000000000E+00   0.00000000000000E+00   0.00000000000000E+00   0.00000000000000E+00
      0.00000000000000E+00   8.36635335522690E-17
      6.18296000455937E-02
      1.30000000000000E+00   1.30000000000000E+00   0.00000000000000E+00   0.00000000000000E+00   4.24586548579851E-08
     -4.82809165820613E-19   4.24586548575023E-08   2.39592186463821E-15   0.00000000000000E+00   0.00000000000000E+00
      0.00000000000000E+00   0.00000000000000E+00   7.94392435231308E-17  -7.69997507393770E-17   2.43949278375378E-18
     -3.86685484294920E-15   0.00000000000000E+00   0.00000000000000E+00   0.00000000000000E+00   0.00000000000000E+00
     -4.24586548579579E-08  -1.98385954410842E-18  -4.24586548599418E-08   1.38608718387437E-15   8.03784800592718E-02
      8.03784800592718E-02   0.00000000000000E+00   0.00000000000000E+00   0.00000000000000E+00   0.00000000000000E+00
      0.00000000000000E+00   8.48457944366177E-17
      6.88450144500315E-02
      1.30000000000000E+00   1.30000000000000E+00   0.00000000000000E+00   0.00000000000000E+00   4.97307443083048E-08
     -7.90557327327008E-21   4.97307443082969E-08   2.39563016454372E-15   0.00000000000000E+00   0.00000000000000E+00
      0.00000000000000E+00   0.00000000000000E+00   7.94353490521492E-17  -7.64774131024922E-17   2.95793594965702E-18
     -3.86748335050988E-15   0.00000000000000E+00   0.00000000000000E+00   0.00000000000000E+00   0.00000000000000E+00
     -4.97307443082738E-08  -2.98107123342489E-18  -4.97307443112548E-08   1.38570935901551E-15   8.94985187850409E-02
      8.94985187850409E-02   0.00000000000000E+00   0.00000000000000E+00   0.00000000000000E+00   0.00000000000000E+00
      0.00000000000000E+00   8.61438269506558E-17
      7.65432625231679E-02
      1.30000000000000E+00   1.30000000000000E+00   0.00000000000000E+00   0.00000000000000E+00   5.90549666218614E-08
     -1.77789501548361E-19   5.90549666216836E-08   2.39530985559468E-15   0.00000000000000E+00   0.00000000000000E+00
      0.00000000000000E+00   0.00000000000000E+00   7.94355737176416E-17  -8.29561511634045E-17  -3.52057744576286E-18
     -3.86817263090181E-15   0.00000000000000E+00   0.00000000000000E+00   0.00000000000000E+00   0.00000000000000E+00
     -5.90549666218306E-08   3.66758314946698E-18  -5.90549666181630E-08   1.38529361411354E-15   9.95062412801182E-02
      9.95062412801182E-02   0.00000000000000E+00   0.00000000000000E+00   0.00000000000000E+00   0.00000000000000E+00
      0.00000000000000E+00   8.75691611935906E-17
      8.49908067420896E-02
      1.30000000000000E+00   1.30000000000000E+00   0.00000000000000E+00   0.00000000000000E+00   7.11686398304137E-08
     -7.82288628172954E-19   7.11686398296314E-08   2.39495806829867E-15   0.00000000000000E+00   0.00000000000000E+00
      0.00000000000000E+00   0.00000000000000E+00   7.94378893376479E-17  -7.91851214558383E-17   2.52767881809596E-19
     -3.86892860848804E-15   0.00000000000000E+00   0.00000000000000E+00   0.00000000000000E+00   0.00000000000000E+00
     -7.11686398303853E-08   5.01087982942920E-19  -7.11686398298842E-08   1.38483597414671E-15   1.10488048764716E-01
      1.10488048764716E-01   0.00000000000000E+00   0.00000000000000E+00   0.00000000000000E+00   0.00000000000000E+00
      0.00000000000000E+00   8.91345660426707E-17
      9.42605785983196E-02
      1.30000000000000E+00   1.30000000000000E+00   0.00000000000000E+00   0.00000000000000E+00   8.71270766017741E-08
      1.50919046832064E-18   8.71270766032833E-08   2.39457161500562E-15   0.00000000000000E+00   0.00000000000000E+00
      0.00000000000000E+00   0.00000000000000E+00   7.94347893274478E-17  -8.37845509822448E-17  -4.34976165479698E-18
     -3.86975784763910E-15   0.00000000000000E+00   0.00000000000000E+00   0.00000000000000E+00   0.00000000000000E+00
     -8.71270766017426E-08   2.80907685318548E-18  -8.71270765989335E-08   1.38433200102641E-15   1.22538752177816E-01
      1.22538752177816E-01   0.00000000000000E+00   0.00000000000000E+00   0.00000000000000E+00   0.00000000000000E+00
      0.00000000000000E+00   9.08542316070761E-17
      1.04432608248556E-01
      1.30000000000000E+00   1.30000000000000E+00   0.00000000000000E+00   0.00000000000000E+00   1.08460920509553E-07
     -3.08001332066847E-19   1.08460920509245E-07   2.39414693890789E-15   0.00000000000000E+00   0.00000000000000E+00
      0.00000000000000E+00   0.00000000000000E+00   7.94205958382306E-17  -8.29288574447701E-17  -3.50826160653950E-18
     -3.87066767416956E-15   0.00000000000000E+00   0.00000000000000E+00   0.00000000000000E+00   0.00000000000000E+00
     -1.08460920509507E-07   3.77061678458868E-18  -1.08460920505736E-07   1.38377672693087E-15   1.35762390723123E-01
      1.35762390723123E-01   0.00000000000000E+00   0.00000000000000E+00   0.00000000000000E+00   0.00000000000000E+00
      0.00000000000000E+00   9.27440083308030E-17
      1.15594715451416E-01
      1.30000000000000E+00   1.30000000000000E+00   0.00000000000000E+00   0.00000000000000E+00   1.37419274087837E-07
     -9.35397674661100E-19   1.37419274086902E-07   2.39368004697354E-15   0.00000000000000E+00   0.00000000000000E+00
      0.00000000000000E+00   0.00000000000000E+00   7.93500773420400E-17  -7.55312869732123E-17   3.81879036882777E-18
     -3.87166635925971E-15   0.00000000000000E+00   0.00000000000000E+00   0.00000000000000E+00   0.00000000000000E+00
     -1.37419274087721E-07  -2.99951225551476E-18  -1.37419274090720E-07   1.38316457552511E-15   1.50273130086840E-01
      1.50273130086840E-01   0.00000000000000E+00   0.00000000000000E+00   0.00000000000000E+00   0.00000000000000E+00
      0.00000000000000E+00   9.48217367610590E-17
      1.27843267755353E-01
      1.30000000000000E+00   1.30000000000000E+00   0.00000000000000E+00   0.00000000000000E+00   1.77347745324380E-07
      5.10927963026414E-19   1.77347745324891E-07   2.39316641906048E-15   0.00000000000000E+00   0.00000000000000E+00
      0.00000000000000E+00   0.00000000000000E+00   7.94327330459577E-17  -7.81885336798130E-17   1.24419936614470E-18
     -3.87276341798342E-15   0.00000000000000E+00   0.00000000000000E+00   0.00000000000000E+00   0.00000000000000E+00
     -1.77347745324347E-07  -1.78854250815751E-18  -1.77347745326135E-07   1.38248926965895E-15   1.66196248081959E-01
      1.66196248081959E-01   0.00000000000000E+00   0.00000000000000E+00   0.00000000000000E+00   0.00000000000000E+00
      0.00000000000000E+00   9.71077292639903E-17
      1.41251349677397E-01
      1.30000000000000E+00   1.30000000000000E+00   0.00000000000000E+00   0.00000000000000E+00   2.33124072865110E-07
     -7.08544125081586E-19   2.33124072864402E-07   2.39260225889665E-15   0.00000000000000E+00   0.00000000000000E+00
      0.00000000000000E+00   0.00000000000000E+00   7.94368486381215E-17  -7.35866419360093E-17   5.85020670211223E-18
     -3.87396718762921E-15   0.00000000000000E+00   0.00000000000000E+00   0.00000000000000E+00   0.00000000000000E+00
     -2.33124072865081E-07  -5.17090975067859E-18  -2.33124072870252E-07   1.38174554368095E-15   1.83626754580617E-01
      1.83626754580617E-01   0.00000000000000E+00   0.00000000000000E+00   0.00000000000000E+00   0.00000000000000E+00
      0.00000000000000E+00   9.96193850516188E-17
      1.55928730021395E-01
      1.30000000000000E+00   1.30000000000000E+00   0.00000000000000E+00   0.00000000000000E+00   3.12201089378077E-07
      3.71535831017097E-19   3.12201089378448E-07   2.39198185042355E-15   0.00000000000000E+00   0.00000000000000E+00
      0.00000000000000E+00   0.00000000000000E+00   7.94340710734055E-17  -8.09573968938247E-17  -1.52332582041917E-18
     -3.87529102229903E-15   0.00000000000000E+00   0.00000000000000E+00   0.00000000000000E+00   0.00000000000000E+00
     -3.12201089378044E-07   1.11982160645190E-18  -3.12201089376925E-07   1.38092578726505E-15   2.02707349027813E-01
      2.02707349027813E-01   0.00000000000000E+00   0.00000000000000E+00   0.00000000000000E+00   0.00000000000000E+00
      0.00000000000000E+00   1.02383384610434E-16
      1.71995569037957E-01
      1.30000000000000E+00   1.30000000000000E+00   0.00000000000000E+00   0.00000000000000E+00   4.25868017564640E-07
     -8.67008938677140E-19   4.25868017563773E-07   2.39129846086050E-15   0.00000000000000E+00   0.00000000000000E+00
      0.00000000000000E+00   0.00000000000000E+00   7.94424575649777E-17  -8.05509975099365E-17  -1.10853994495874E-18
     -3.87675257310991E-15   0.00000000000000E+00   0.00000000000000E+00   0.00000000000000E+00   0.00000000000000E+00
     -4.25868017564617E-07   1.95202704652464E-18  -4.25868017562665E-07   1.38002144407468E-15   2.23594239749344E-01
      2.23594239749344E-01   0.00000000000000E+00   0.00000000000000E+00   0.00000000000000E+00   0.00000000000000E+00
      0.00000000000000E+00   1.05432668174721E-16
      1.89583402148088E-01
      1.30000000000000E+00   1.30000000000000E+00   0.00000000000000E+00   0.00000000000000E+00   5.91194090323234E-07
     -1.58592652639469E-18   5.91194090321649E-07   2.39054402738927E-15   0.00000000000000E+00   0.00000000000000E+00
      0.00000000000000E+00   0.00000000000000E+00   7.94113502471367E-17  -7.58781146026473E-17   3.53323564448945E-18
     -3.87837714333852E-15   0.00000000000000E+00   0.00000000000000E+00   0.00000000000000E+00   0.00000000000000E+00
     -5.91194090323180E-07  -2.00187489364975E-18  -5.91194090325182E-07   1.37902298478058E-15   2.46458422792514E-01
      2.46458422792514E-01   0.00000000000000E+00   0.00000000000000E+00   0.00000000000000E+00   0.00000000000000E+00
      0.00000000000000E+00   1.08810131168662E-16
      2.08836216792644E-01
      1.30000000000000E+00   1.30000000000000E+00   0.00000000000000E+00   0.00000000000000E+00   8.33694811258690E-07
     -1.19867672130876E-18   8.33694811257491E-07   2.38970878746485E-15   0.00000000000000E+00   0.00000000000000E+00
      0.00000000000000E+00   0.00000000000000E+00   7.94313428252320E-17  -8.12025719978350E-17  -1.77122917260293E-18
     -3.88020443142107E-15   0.00000000000000E+00   0.00000000000000E+00   0.00000000000000E+00   0.00000000000000E+00
     -8.33694811258655E-07   2.93539894974987E-18  -8.33694811255720E-07   1.37792005596098E-15   2.71487081830437E-01
      2.71487081830437E-01   0.00000000000000E+00   0.00000000000000E+00   0.00000000000000E+00   0.00000000000000E+00
      0.00000000000000E+00   1.12575587995245E-16
      2.29911631223551E-01
      1.30000000000000E+00   1.30000000000000E+00   0.00000000000000E+00   0.00000000000000E+00   1.19049437592963E-06
      1.33390266849778E-18   1.19049437593096E-06   2.38878098563582E-15   0.00000000000000E+00   0.00000000000000E+00
      0.00000000000000E+00   0.00000000000000E+00   7.94572517215298E-17  -7.83117832947447E-17   1.14546842678509E-18
     -3.88230224840889E-15   0.00000000000000E+00   0.00000000000000E+00   0.00000000000000E+00   0.00000000000000E+00
     -1.19049437592962E-06  -2.48790044838180E-18  -1.19049437593210E-06   1.37670205558164E-15   2.98885120590616E-01
      2.98885120590616E-01   0.00000000000000E+00   0.00000000000000E+00   0.00000000000000E+00   0.00000000000000E+00
      0.00000000000000E+00   1.16819207191438E-16