DF-ISE text

Info {
  version   = 1.0
  type      = xyplot
  datasets  = [
    "time"
    "Drain_contact OuterVoltage" "Drain_contact InnerVoltage" "Drain_contact QuasiFermiPotential" "Drain_contact DisplacementCurrent" "Drain_contact eCurrent"
    "Drain_contact hCurrent" "Drain_contact TotalCurrent" "Drain_contact Charge" "Body_contact OuterVoltage" "Body_contact InnerVoltage"
    "Body_contact QuasiFermiPotential" "Body_contact DisplacementCurrent" "Body_contact eCurrent" "Body_contact hCurrent" "Body_contact TotalCurrent"
    "Body_contact Charge" "Source_contact OuterVoltage" "Source_contact InnerVoltage" "Source_contact QuasiFermiPotential" "Source_contact DisplacementCurrent"
    "Source_contact eCurrent" "Source_contact hCurrent" "Source_contact TotalCurrent" "Source_contact Charge" "Gate_contact OuterVoltage"
    "Gate_contact InnerVoltage" "Gate_contact QuasiFermiPotential" "Gate_contact DisplacementCurrent" "Gate_contact eCurrent" "Gate_contact hCurrent"
    "Gate_contact TotalCurrent" "Gate_contact Charge" ]
  functions = [
    Time
    OuterVoltage InnerVoltage QuasiFermiPotential DisplacementCurrent eCurrent
    hCurrent TotalCurrent Charge OuterVoltage InnerVoltage
    QuasiFermiPotential DisplacementCurrent eCurrent hCurrent TotalCurrent
    Charge OuterVoltage InnerVoltage QuasiFermiPotential DisplacementCurrent
    eCurrent hCurrent TotalCurrent Charge OuterVoltage
    InnerVoltage QuasiFermiPotential DisplacementCurrent eCurrent hCurrent
    TotalCurrent Charge ]
}

Data {
      0.00000000000000E+00
      1.30000000000000E+00   1.30000000000000E+00   0.00000000000000E+00   0.00000000000000E+00   2.25721540999243E-18
     -2.26133674199157E-18  -4.12133199914234E-21   4.16564895631232E-15   0.00000000000000E+00   0.00000000000000E+00
      0.00000000000000E+00   0.00000000000000E+00   4.84374453984676E-04  -1.57990771625949E-17   4.84374453984661E-04
     -5.97901686978256E-15   0.00000000000000E+00   0.00000000000000E+00   0.00000000000000E+00   0.00000000000000E+00
     -4.84374453984661E-04   3.39715293969380E-24  -4.84374453984661E-04   2.03598016090233E-15   0.00000000000000E+00
      0.00000000000000E+00   0.00000000000000E+00   0.00000000000000E+00   0.00000000000000E+00   0.00000000000000E+00
      0.00000000000000E+00  -2.22612247432088E-16
      0.00000000000000E+00
      1.30000000000000E+00   1.30000000000000E+00   0.00000000000000E+00   0.00000000000000E+00   1.30205044164759E-03
     -5.39342777540730E-28   1.30205044164759E-03   4.20941129280710E-15   0.00000000000000E+00   0.00000000000000E+00
      0.00000000000000E+00   0.00000000000000E+00  -2.37128086007107E-12  -7.94555202937396E-17  -2.37136031559136E-12
     -6.19997235423956E-15   0.00000000000000E+00   0.00000000000000E+00   0.00000000000000E+00   0.00000000000000E+00
     -1.30205043927623E-03  -9.70289086102635E-24  -1.30205043927623E-03   2.19034559906874E-15   0.00000000000000E+00
      0.00000000000000E+00   0.00000000000000E+00   0.00000000000000E+00   0.00000000000000E+00   0.00000000000000E+00
      0.00000000000000E+00  -1.99784537636289E-16
      1.00000000000000E-03
      1.30000000000000E+00   1.30000000000000E+00   0.00000000000000E+00   0.00000000000000E+00   1.30364791786736E-03
     -8.42716696798436E-28   1.30364791786736E-03   4.20920869715011E-15   0.00000000000000E+00   0.00000000000000E+00
      0.00000000000000E+00   0.00000000000000E+00  -5.46095529374768E-14  -7.94555344976052E-17  -5.46890084719744E-14
     -6.20024205021515E-15   0.00000000000000E+00   0.00000000000000E+00   0.00000000000000E+00   0.00000000000000E+00
     -1.30364791781267E-03  -1.90808692917451E-23  -1.30364791781267E-03   2.19019690785266E-15   1.30000000000000E-03
      1.30000000000000E-03   0.00000000000000E+00   0.00000000000000E+00   0.00000000000000E+00   0.00000000000000E+00
      0.00000000000000E+00  -1.99163554787615E-16
      2.09466666666667E-03
      1.30000000000000E+00   1.30000000000000E+00   0.00000000000000E+00   0.00000000000000E+00   1.30540141586567E-03
     -3.80498754029656E-27   1.30540141586567E-03   4.20898683724932E-15   0.00000000000000E+00   0.00000000000000E+00
      0.00000000000000E+00   0.00000000000000E+00   2.48352818396661E-13  -7.94549196927727E-17   2.48273363476968E-13
     -6.20053810729597E-15   0.00000000000000E+00   0.00000000000000E+00   0.00000000000000E+00   0.00000000000000E+00
     -1.30540141611394E-03  -4.25454863169702E-22  -1.30540141611394E-03   2.19003439895000E-15   2.72306666666667E-03
      2.72306666666667E-03   0.00000000000000E+00   0.00000000000000E+00   0.00000000000000E+00   0.00000000000000E+00
      0.00000000000000E+00  -1.98483128903348E-16
      3.29880000000000E-03
      1.30000000000000E+00   1.30000000000000E+00   0.00000000000000E+00   0.00000000000000E+00   1.30733547440700E-03
      1.15595167623299E-26   1.30733547440700E-03   4.20874272546714E-15   0.00000000000000E+00   0.00000000000000E+00
      0.00000000000000E+00   0.00000000000000E+00   1.99306650474135E-13  -7.94554999351721E-17   1.99227194974200E-13
     -6.20086496924423E-15   0.00000000000000E+00   0.00000000000000E+00   0.00000000000000E+00   0.00000000000000E+00
     -1.30733547460623E-03  -2.39294444788680E-23  -1.30733547460623E-03   2.18985603939349E-15   4.28844000000000E-03
      4.28844000000000E-03   0.00000000000000E+00   0.00000000000000E+00   0.00000000000000E+00   0.00000000000000E+00
      0.00000000000000E+00  -1.97733795616379E-16
      4.62013564444444E-03
      1.30000000000000E+00   1.30000000000000E+00   0.00000000000000E+00   0.00000000000000E+00   1.30946769606297E-03
     -1.36183102620287E-25   1.30946769606297E-03   4.20847474593170E-15   0.00000000000000E+00   0.00000000000000E+00
      0.00000000000000E+00   0.00000000000000E+00   1.14734494900528E-12  -7.94532793522626E-17   1.14726549572593E-12
     -6.20122511626538E-15   0.00000000000000E+00   0.00000000000000E+00   0.00000000000000E+00   0.00000000000000E+00
     -1.30946769721024E-03  -2.10733751151753E-21  -1.30946769721024E-03   2.18966082162822E-15   6.00617633777778E-03
      6.00617633777778E-03   0.00000000000000E+00   0.00000000000000E+00   0.00000000000000E+00   0.00000000000000E+00
      0.00000000000000E+00  -1.96910451294548E-16
      6.07360485333333E-03
      1.30000000000000E+00   1.30000000000000E+00   0.00000000000000E+00   0.00000000000000E+00   1.31182416266550E-03
      1.98122163651469E-23   1.31182416266550E-03   4.20817982492826E-15   0.00000000000000E+00   0.00000000000000E+00
      0.00000000000000E+00   0.00000000000000E+00   2.56102215161205E-13  -7.94555690231311E-17   2.56022759592182E-13
     -6.20162291727673E-15   0.00000000000000E+00   0.00000000000000E+00   0.00000000000000E+00   0.00000000000000E+00
     -1.31182416292153E-03  -6.03453811667856E-24  -1.31182416292153E-03   2.18944661651012E-15   7.89568630933334E-03
      7.89568630933334E-03   0.00000000000000E+00   0.00000000000000E+00   0.00000000000000E+00   0.00000000000000E+00
      0.00000000000000E+00  -1.96003524161648E-16
      7.66854506522074E-03
      1.30000000000000E+00   1.30000000000000E+00   0.00000000000000E+00   0.00000000000000E+00   1.31441612349798E-03
     -1.88260339868960E-24   1.31441612349798E-03   4.20785597993777E-15   0.00000000000000E+00   0.00000000000000E+00
      0.00000000000000E+00   0.00000000000000E+00   2.36562173192393E-13  -7.94555615007485E-17   2.36482717630893E-13
     -6.20206087861136E-15   0.00000000000000E+00   0.00000000000000E+00   0.00000000000000E+00   0.00000000000000E+00
     -1.31441612373446E-03  -1.88610155140918E-24  -1.31441612373446E-03   2.18921198528204E-15   9.96910858478697E-03
      9.96910858478697E-03   0.00000000000000E+00   0.00000000000000E+00   0.00000000000000E+00   0.00000000000000E+00
      0.00000000000000E+00  -1.95007086608460E-16
      9.41872612439852E-03
      1.30000000000000E+00   1.30000000000000E+00   0.00000000000000E+00   0.00000000000000E+00   1.31727467033036E-03
      2.75760686655286E-23   1.31727467033036E-03   4.20750040257196E-15   0.00000000000000E+00   0.00000000000000E+00
      0.00000000000000E+00   0.00000000000000E+00   6.16449639349982E-13  -7.94556175898100E-17   6.16370183732393E-13
     -6.20254383232310E-15   0.00000000000000E+00   0.00000000000000E+00   0.00000000000000E+00   0.00000000000000E+00
     -1.31727467094673E-03   1.89594202493197E-24  -1.31727467094673E-03   2.18895530968996E-15   1.22443439617181E-02
      1.22443439617181E-02   0.00000000000000E+00   0.00000000000000E+00   0.00000000000000E+00   0.00000000000000E+00
      0.00000000000000E+00  -1.93911879938817E-16
      1.13392581400029E-02
      1.30000000000000E+00   1.30000000000000E+00   0.00000000000000E+00   0.00000000000000E+00   1.32042754485217E-03
      2.18072356453466E-23   1.32042754485217E-03   4.20711000419368E-15   0.00000000000000E+00   0.00000000000000E+00
      0.00000000000000E+00   0.00000000000000E+00   1.11799584533509E-12  -7.94556180195863E-17   1.11791638971707E-12
     -6.20307681681575E-15   0.00000000000000E+00   0.00000000000000E+00   0.00000000000000E+00   0.00000000000000E+00
     -1.32042754597008E-03   1.22975350697840E-24  -1.32042754597008E-03   2.18867464994329E-15   1.47410355820038E-02
      1.47410355820038E-02   0.00000000000000E+00   0.00000000000000E+00   0.00000000000000E+00   0.00000000000000E+00
      0.00000000000000E+00  -1.92707837321207E-16
      1.34467219384595E-02
      1.30000000000000E+00   1.30000000000000E+00   0.00000000000000E+00   0.00000000000000E+00   1.32390957440631E-03
      1.60130869601116E-23   1.32390957440631E-03   4.20668130889937E-15   0.00000000000000E+00   0.00000000000000E+00
      0.00000000000000E+00   0.00000000000000E+00   1.16932835428974E-12  -7.94556227799686E-17   1.16924889866696E-12
     -6.20366518079648E-15   0.00000000000000E+00   0.00000000000000E+00   0.00000000000000E+00   0.00000000000000E+00
     -1.32390957557556E-03   6.28447345416609E-25  -1.32390957557556E-03   2.18836783511646E-15   1.74807385199974E-02
      1.74807385199974E-02   0.00000000000000E+00   0.00000000000000E+00   0.00000000000000E+00   0.00000000000000E+00
      0.00000000000000E+00  -1.91383963219342E-16
      1.57593122132992E-02
      1.30000000000000E+00   1.30000000000000E+00   0.00000000000000E+00   0.00000000000000E+00   1.32775763138579E-03
     -4.71628187176874E-27   1.32775763138579E-03   4.20621050948087E-15   0.00000000000000E+00   0.00000000000000E+00
      0.00000000000000E+00   0.00000000000000E+00   7.24384689300069E-17  -7.94556156820336E-17  -7.01714675202670E-18
     -6.20431502713038E-15   0.00000000000000E+00   0.00000000000000E+00   0.00000000000000E+00   0.00000000000000E+00
     -1.32775763138578E-03   2.27685893404941E-25  -1.32775763138578E-03   2.18803257288466E-15   2.04871058772890E-02
      2.04871058772890E-02   0.00000000000000E+00   0.00000000000000E+00   0.00000000000000E+00   0.00000000000000E+00
      0.00000000000000E+00  -1.89928055235142E-16
      1.82969946082233E-02
      1.30000000000000E+00   1.30000000000000E+00   0.00000000000000E+00   0.00000000000000E+00   1.33200536859560E-03
     -2.36405878058747E-28   1.33200536859560E-03   4.20569331909883E-15   0.00000000000000E+00   0.00000000000000E+00
      0.00000000000000E+00   0.00000000000000E+00   7.97493241071222E-17  -7.94556257596103E-17   2.93698347511831E-19
     -6.20503232761560E-15   0.00000000000000E+00   0.00000000000000E+00   0.00000000000000E+00   0.00000000000000E+00
     -1.33200536859560E-03  -7.01149279773379E-25  -1.33200536859560E-03   2.18766597383976E-15   2.37860929906903E-02
      2.37860929906903E-02   0.00000000000000E+00   0.00000000000000E+00   0.00000000000000E+00   0.00000000000000E+00
      0.00000000000000E+00  -1.88326965323003E-16
      2.10816780895867E-02
      1.30000000000000E+00   1.30000000000000E+00   0.00000000000000E+00   0.00000000000000E+00   1.33670391801273E-03
      1.11940550744991E-29   1.33670391801273E-03   4.20512518697645E-15   0.00000000000000E+00   0.00000000000000E+00
      0.00000000000000E+00   0.00000000000000E+00   8.17875847379822E-17  -7.94556380378477E-17   2.33194670013454E-18
     -6.20582529283973E-15   0.00000000000000E+00   0.00000000000000E+00   0.00000000000000E+00   0.00000000000000E+00
     -1.33670391801273E-03  -4.70481372324466E-25  -1.33670391801273E-03   2.18726566610682E-15   2.74061815164627E-02
      2.74061815164627E-02   0.00000000000000E+00   0.00000000000000E+00   0.00000000000000E+00   0.00000000000000E+00
      0.00000000000000E+00  -1.86565560243546E-16
      2.41374040964694E-02
      1.30000000000000E+00   1.30000000000000E+00   0.00000000000000E+00   0.00000000000000E+00   1.34190500680931E-03
      6.40774373067012E-29   1.34190500680931E-03   4.20450105703094E-15   0.00000000000000E+00   0.00000000000000E+00
      0.00000000000000E+00   0.00000000000000E+00   8.84497598240927E-17  -7.94556518493351E-17   8.99410797475760E-18
     -6.20670264171906E-15   0.00000000000000E+00   0.00000000000000E+00   0.00000000000000E+00   0.00000000000000E+00
     -1.34190500680932E-03  -2.72654200026976E-26  -1.34190500680932E-03   2.18682889149689E-15   3.13786253254102E-02
      3.13786253254102E-02   0.00000000000000E+00   0.00000000000000E+00   0.00000000000000E+00   0.00000000000000E+00
      0.00000000000000E+00  -1.84627306808770E-16
      2.74905541013554E-02
      1.30000000000000E+00   1.30000000000000E+00   0.00000000000000E+00   0.00000000000000E+00   1.34764538960576E-03
      2.74567435791858E-29   1.34764538960576E-03   4.20381534611108E-15   0.00000000000000E+00   0.00000000000000E+00
      0.00000000000000E+00   0.00000000000000E+00   5.47275029855737E-17  -7.94556665134179E-17  -2.47281635278442E-17
     -6.20767328379387E-15   0.00000000000000E+00   0.00000000000000E+00   0.00000000000000E+00   0.00000000000000E+00
     -1.34764538960573E-03  -1.42150250516297E-25  -1.34764538960573E-03   2.18635212089953E-15   3.57377203317620E-02
      3.57377203317620E-02   0.00000000000000E+00   0.00000000000000E+00   0.00000000000000E+00   0.00000000000000E+00
      0.00000000000000E+00  -1.82494183216739E-16
      3.11700773733836E-02
      1.30000000000000E+00   1.30000000000000E+00   0.00000000000000E+00   0.00000000000000E+00   1.35400339182493E-03
     -5.94590177672574E-30   1.35400339182493E-03   4.20306183337184E-15   0.00000000000000E+00   0.00000000000000E+00
      0.00000000000000E+00   0.00000000000000E+00   4.80547268492235E-17  -7.94556824476789E-17  -3.14009555984554E-17
     -6.20874814240517E-15   0.00000000000000E+00   0.00000000000000E+00   0.00000000000000E+00   0.00000000000000E+00
     -1.35400339182490E-03  -5.93814394595609E-25  -1.35400339182490E-03   2.18583206748506E-15   4.05211005853987E-02
      4.05211005853987E-02   0.00000000000000E+00   0.00000000000000E+00   0.00000000000000E+00   0.00000000000000E+00
      0.00000000000000E+00  -1.80145758451737E-16
      3.52077409105559E-02
      1.30000000000000E+00   1.30000000000000E+00   0.00000000000000E+00   0.00000000000000E+00   1.36105445846717E-03
      1.91661368981485E-30   1.36105445846717E-03   4.20223368619366E-15   0.00000000000000E+00   0.00000000000000E+00
      0.00000000000000E+00   0.00000000000000E+00   1.12079453738209E-16  -7.94557014574202E-17   3.26237522807886E-17
     -6.20993981789531E-15   0.00000000000000E+00   0.00000000000000E+00   0.00000000000000E+00   0.00000000000000E+00
     -1.36105445846721E-03   2.35742163218326E-25  -1.36105445846721E-03   2.18526533793103E-15   4.57700631837227E-02
      4.57700631837227E-02   0.00000000000000E+00   0.00000000000000E+00   0.00000000000000E+00   0.00000000000000E+00
      0.00000000000000E+00  -1.77559206229364E-16
      3.96384036986797E-02
      1.30000000000000E+00   1.30000000000000E+00   0.00000000000000E+00   0.00000000000000E+00   1.36887774163963E-03
      3.79609069569353E-29   1.36887774163963E-03   4.20132331191951E-15   0.00000000000000E+00   0.00000000000000E+00
      0.00000000000000E+00   0.00000000000000E+00   4.51730993526878E-17  -7.94557215418721E-17  -3.42826221891842E-17
     -6.21126176232556E-15   0.00000000000000E+00   0.00000000000000E+00   0.00000000000000E+00   0.00000000000000E+00
     -1.36887774163959E-03   1.38622775987521E-25  -1.36887774163959E-03   2.18464801341888E-15   5.15299248082836E-02
      5.15299248082836E-02   0.00000000000000E+00   0.00000000000000E+00   0.00000000000000E+00   0.00000000000000E+00
      0.00000000000000E+00  -1.74709563012835E-16
      4.45003176648475E-02
      1.30000000000000E+00   1.30000000000000E+00   0.00000000000000E+00   0.00000000000000E+00   1.37756936637026E-03
      1.49634359867981E-29   1.37756936637026E-03   4.20032226582486E-15   0.00000000000000E+00   0.00000000000000E+00
      0.00000000000000E+00   0.00000000000000E+00   1.13200136586033E-17  -7.94557437156233E-17  -6.81357300570200E-17
     -6.21272928298685E-15   0.00000000000000E+00   0.00000000000000E+00   0.00000000000000E+00   0.00000000000000E+00
     -1.37756936637019E-03  -1.24060849347516E-25  -1.37756936637019E-03   2.18397602021282E-15   5.78504129643017E-02
      5.78504129643017E-02   0.00000000000000E+00   0.00000000000000E+00   0.00000000000000E+00   0.00000000000000E+00
      0.00000000000000E+00  -1.71569003050836E-16
      4.98354579237223E-02
      1.30000000000000E+00   1.30000000000000E+00   0.00000000000000E+00   0.00000000000000E+00   1.38722088573657E-03
      6.74200848892428E-30   1.38722088573657E-03   4.19922143380918E-15   0.00000000000000E+00   0.00000000000000E+00
      0.00000000000000E+00   0.00000000000000E+00  -7.98614514424140E-17  -7.94557679599283E-17  -1.59317219402342E-16
     -6.21436027575149E-15   0.00000000000000E+00   0.00000000000000E+00   0.00000000000000E+00   0.00000000000000E+00
     -1.38722088573641E-03  -8.14375861240150E-25  -1.38722088573641E-03   2.18324511763424E-15   6.47860953008390E-02
      6.47860953008390E-02   0.00000000000000E+00   0.00000000000000E+00   0.00000000000000E+00   0.00000000000000E+00
      0.00000000000000E+00  -1.68106275691931E-16
      5.56898851677942E-02
      1.30000000000000E+00   1.30000000000000E+00   0.00000000000000E+00   0.00000000000000E+00   1.39794940507940E-03
      2.36084586890630E-29   1.39794940507940E-03   4.19801023839359E-15   0.00000000000000E+00   0.00000000000000E+00
      0.00000000000000E+00   0.00000000000000E+00  -1.17966360746733E-16  -7.94557973414328E-17  -1.97422158088166E-16
     -6.21617357469914E-15   0.00000000000000E+00   0.00000000000000E+00   0.00000000000000E+00   0.00000000000000E+00
     -1.39794940507920E-03   8.31218104435779E-25  -1.39794940507920E-03   2.18245059195751E-15   7.23968507181325E-02
      7.23968507181325E-02   0.00000000000000E+00   0.00000000000000E+00   0.00000000000000E+00   0.00000000000000E+00
      0.00000000000000E+00  -1.64287255651960E-16
      6.21141433302892E-02
      1.30000000000000E+00   1.30000000000000E+00   0.00000000000000E+00   0.00000000000000E+00   1.40989749973715E-03
     -1.66277070879976E-29   1.40989749973715E-03   4.19667747545082E-15   0.00000000000000E+00   0.00000000000000E+00
      0.00000000000000E+00   0.00000000000000E+00  -4.27962303721802E-16  -7.94558274558442E-17  -5.07418131177646E-16
     -6.21819256821554E-15   0.00000000000000E+00   0.00000000000000E+00   0.00000000000000E+00   0.00000000000000E+00
     -1.40989749973665E-03   2.29195127704371E-26  -1.40989749973665E-03   2.18158808927570E-15   8.07483863293759E-02
      8.07483863293759E-02   0.00000000000000E+00   0.00000000000000E+00   0.00000000000000E+00   0.00000000000000E+00
      0.00000000000000E+00  -1.60072996510978E-16
      6.91636959539336E-02
      1.30000000000000E+00   1.30000000000000E+00   0.00000000000000E+00   0.00000000000000E+00   1.42321506812488E-03
     -2.59899380748426E-29   1.42321506812488E-03   4.19521012432289E-15   0.00000000000000E+00   0.00000000000000E+00
      0.00000000000000E+00   0.00000000000000E+00  -8.75440075723485E-16  -7.94558611773477E-17  -9.54895936900833E-16
     -6.22044124907408E-15   0.00000000000000E+00   0.00000000000000E+00   0.00000000000000E+00   0.00000000000000E+00
     -1.42321506812393E-03  -7.62357720619994E-25  -1.42321506812393E-03   2.18065224871206E-15   8.99128047401137E-02
      8.99128047401137E-02   0.00000000000000E+00   0.00000000000000E+00   0.00000000000000E+00   0.00000000000000E+00
      0.00000000000000E+00  -1.55421123960881E-16
      7.68994050329461E-02
      1.30000000000000E+00   1.30000000000000E+00   0.00000000000000E+00   0.00000000000000E+00   1.43805339130378E-03
     -5.91811811701728E-29   1.43805339130378E-03   4.19359399961055E-15   0.00000000000000E+00   0.00000000000000E+00
      0.00000000000000E+00   0.00000000000000E+00  -1.90857764374679E-15  -7.94559004207163E-17  -1.98803354416751E-15
     -6.22294719698002E-15   0.00000000000000E+00   0.00000000000000E+00   0.00000000000000E+00   0.00000000000000E+00
     -1.43805339130180E-03  -1.27778529527610E-26  -1.43805339130180E-03   2.17963726377828E-15   9.99692265428300E-02
      9.99692265428300E-02   0.00000000000000E+00   0.00000000000000E+00   0.00000000000000E+00   0.00000000000000E+00
      0.00000000000000E+00  -1.50284066408807E-16
      8.53880564623159E-02
      1.30000000000000E+00   1.30000000000000E+00   0.00000000000000E+00   0.00000000000000E+00   1.45459261163749E-03
     -1.37810369508672E-29   1.45459261163749E-03   4.19181350948403E-15   0.00000000000000E+00   0.00000000000000E+00
      0.00000000000000E+00   0.00000000000000E+00  -3.69636260225894E-15  -7.94559433057603E-17  -3.77581854556470E-15
     -6.22574379909690E-15   0.00000000000000E+00   0.00000000000000E+00   0.00000000000000E+00   0.00000000000000E+00
     -1.45459261163372E-03  -9.46284155827139E-26  -1.45459261163372E-03   2.17853787851656E-15   1.11004473401011E-01
      1.11004473401011E-01   0.00000000000000E+00   0.00000000000000E+00   0.00000000000000E+00   0.00000000000000E+00
      0.00000000000000E+00  -1.44607588903687E-16
      9.47029366308109E-02
      1.30000000000000E+00   1.30000000000000E+00   0.00000000000000E+00   0.00000000000000E+00   1.47306692856578E-03
     -6.04064183114131E-29   1.47306692856578E-03   4.18985095906848E-15   0.00000000000000E+00   0.00000000000000E+00
      0.00000000000000E+00   0.00000000000000E+00  -7.01871306937698E-15  -7.94559897865259E-17  -7.09816905916351E-15
     -6.22886747467125E-15   0.00000000000000E+00   0.00000000000000E+00   0.00000000000000E+00   0.00000000000000E+00
     -1.47306692855868E-03  -1.69120545667202E-24  -1.47306692855868E-03   2.17734876696463E-15   1.23113817620054E-01
      1.23113817620054E-01   0.00000000000000E+00   0.00000000000000E+00   0.00000000000000E+00   0.00000000000000E+00
      0.00000000000000E+00  -1.38332251361856E-16
      1.04924465135706E-01
      1.30000000000000E+00   1.30000000000000E+00   0.00000000000000E+00   0.00000000000000E+00   1.49372380794620E-03
     -2.95918649711619E-29   1.49372380794620E-03   4.18768635813031E-15   0.00000000000000E+00   0.00000000000000E+00
      0.00000000000000E+00   0.00000000000000E+00  -1.32219041611538E-14  -7.94560428331909E-17  -1.33013602039870E-14
     -6.23235844262031E-15   0.00000000000000E+00   0.00000000000000E+00   0.00000000000000E+00   0.00000000000000E+00
     -1.49372380793290E-03  -2.50743752262446E-24  -1.49372380793290E-03   2.17606413887359E-15   1.36401804676418E-01
      1.36401804676418E-01   0.00000000000000E+00   0.00000000000000E+00   0.00000000000000E+00   0.00000000000000E+00
      0.00000000000000E+00  -1.31392054383598E-16
      1.16140889081745E-01
      1.30000000000000E+00   1.30000000000000E+00   0.00000000000000E+00   0.00000000000000E+00   1.51681417729471E-03
     -2.94220999577553E-29   1.51681417729471E-03   4.18529742926548E-15   0.00000000000000E+00   0.00000000000000E+00
      0.00000000000000E+00   0.00000000000000E+00  -2.43862916301390E-14  -7.94561014897902E-17  -2.44657477316288E-14
     -6.23626166645326E-15   0.00000000000000E+00   0.00000000000000E+00   0.00000000000000E+00   0.00000000000000E+00
     -1.51681417727025E-03  -4.18524964284125E-24  -1.51681417727025E-03   2.17467712115692E-15   1.50983155806268E-01
      1.50983155806268E-01   0.00000000000000E+00   0.00000000000000E+00   0.00000000000000E+00   0.00000000000000E+00
      0.00000000000000E+00  -1.23712883969157E-16
      1.28449044958531E-01
      1.30000000000000E+00   1.30000000000000E+00   0.00000000000000E+00   0.00000000000000E+00   1.54262906340097E-03
     -7.62029810270659E-29   1.54262906340097E-03   4.18265898525298E-15   0.00000000000000E+00   0.00000000000000E+00
      0.00000000000000E+00   0.00000000000000E+00  -4.43579297005786E-14  -7.94561652551729E-17  -4.44373858658337E-14
     -6.24062754764489E-15   0.00000000000000E+00   0.00000000000000E+00   0.00000000000000E+00   0.00000000000000E+00
     -1.54262906335653E-03  -8.02170361644517E-24  -1.54262906335653E-03   2.17318118452248E-15   1.66983758446090E-01
      1.66983758446090E-01   0.00000000000000E+00   0.00000000000000E+00   0.00000000000000E+00   0.00000000000000E+00
      0.00000000000000E+00  -1.15212622130578E-16
      1.41955194673991E-01
      1.30000000000000E+00   1.30000000000000E+00   0.00000000000000E+00   0.00000000000000E+00   1.57149595498080E-03
     -1.55409231872129E-28   1.57149595498080E-03   4.17974346681316E-15   0.00000000000000E+00   0.00000000000000E+00
      0.00000000000000E+00   0.00000000000000E+00  -7.97496434306274E-14  -7.94562358825943E-17  -7.98290996665100E-14
     -6.24551394227008E-15   0.00000000000000E+00   0.00000000000000E+00   0.00000000000000E+00   0.00000000000000E+00
     -1.57149595490097E-03  -1.31774600466440E-23  -1.57149595490097E-03   2.17156930686587E-15   1.84541753076188E-01
      1.84541753076188E-01   0.00000000000000E+00   0.00000000000000E+00   0.00000000000000E+00   0.00000000000000E+00
      0.00000000000000E+00  -1.05798831408938E-16
      1.56775942961755E-01
      1.30000000000000E+00   1.30000000000000E+00   0.00000000000000E+00   0.00000000000000E+00   1.60378941915801E-03
     -1.54102937076944E-28   1.60378941915801E-03   4.17651922608612E-15   0.00000000000000E+00   0.00000000000000E+00
      0.00000000000000E+00   0.00000000000000E+00  -1.39987536723818E-13  -7.94563099754173E-17  -1.40066993033793E-13
     -6.25098353083052E-15   0.00000000000000E+00   0.00000000000000E+00   0.00000000000000E+00   0.00000000000000E+00
     -1.60378941901794E-03  -2.41051145466252E-23  -1.60378941901794E-03   2.16983413735591E-15   2.03808725850282E-01
      2.03808725850282E-01   0.00000000000000E+00   0.00000000000000E+00   0.00000000000000E+00   0.00000000000000E+00
      0.00000000000000E+00  -9.53698326115152E-17
      1.73039244082862E-01
      1.30000000000000E+00   1.30000000000000E+00   0.00000000000000E+00   0.00000000000000E+00   1.63991040088074E-03
     -2.76776456006171E-28   1.63991040088074E-03   4.17295080839348E-15   0.00000000000000E+00   0.00000000000000E+00
      0.00000000000000E+00   0.00000000000000E+00  -2.41432673194378E-13  -7.94563933691554E-17  -2.41512129587747E-13
     -6.25710643623888E-15   0.00000000000000E+00   0.00000000000000E+00   0.00000000000000E+00   0.00000000000000E+00
     -1.63991040063923E-03  -3.61026433032319E-23  -1.63991040063923E-03   2.16796794347773E-15   2.24951017307721E-01
      2.24951017307721E-01   0.00000000000000E+00   0.00000000000000E+00   0.00000000000000E+00   0.00000000000000E+00
      0.00000000000000E+00  -8.38123156323235E-17
      1.90885506513091E-01
      1.30000000000000E+00   1.30000000000000E+00   0.00000000000000E+00   0.00000000000000E+00   1.68028190586819E-03
     -6.02231748798595E-28   1.68028190586819E-03   4.16899844140665E-15   0.00000000000000E+00   0.00000000000000E+00
      0.00000000000000E+00   0.00000000000000E+00  -4.04275026014253E-13  -7.94564691867741E-17  -4.04354482483440E-13
     -6.26396009045132E-15   0.00000000000000E+00   0.00000000000000E+00   0.00000000000000E+00   0.00000000000000E+00
     -1.68028190546384E-03  -6.72665499889946E-23  -1.68028190546384E-03   2.16596230572034E-15   2.48151158467018E-01
      2.48151158467018E-01   0.00000000000000E+00   0.00000000000000E+00   0.00000000000000E+00   0.00000000000000E+00
      0.00000000000000E+00  -7.10006566756631E-17
      2.10468805153195E-01
      1.30000000000000E+00   1.30000000000000E+00   0.00000000000000E+00   0.00000000000000E+00   1.72541237407350E-03
     -8.61908797016661E-28   1.72541237407350E-03   4.16461709334089E-15   0.00000000000000E+00   0.00000000000000E+00
      0.00000000000000E+00   0.00000000000000E+00  -6.64958951283177E-13  -7.94565514887346E-17  -6.65038407834666E-13
     -6.27162812631291E-15   0.00000000000000E+00   0.00000000000000E+00   0.00000000000000E+00   0.00000000000000E+00
     -1.72541237340846E-03  -1.05021580468580E-22  -1.72541237340846E-03   2.16380861990354E-15   2.73609446699153E-01
      2.73609446699153E-01   0.00000000000000E+00   0.00000000000000E+00   0.00000000000000E+00   0.00000000000000E+00
      0.00000000000000E+00  -5.67975869315231E-17
      2.31958211527602E-01
      1.30000000000000E+00   1.30000000000000E+00   0.00000000000000E+00   0.00000000000000E+00   1.77577149326878E-03
     -1.18564239711891E-27   1.77577149326878E-03   4.15975782095600E-15   0.00000000000000E+00   0.00000000000000E+00
      0.00000000000000E+00   0.00000000000000E+00  -1.06438690363574E-12  -7.94566298609879E-17  -1.06446636026560E-12
     -6.28020560681833E-15   0.00000000000000E+00   0.00000000000000E+00   0.00000000000000E+00   0.00000000000000E+00
     -1.77577149220431E-03  -1.61163337486244E-22  -1.77577149220431E-03   2.16149632340176E-15   3.01545674985882E-01
      3.01545674985882E-01   0.00000000000000E+00   0.00000000000000E+00   0.00000000000000E+00   0.00000000000000E+00
      0.00000000000000E+00  -4.10485375394311E-17